<?xml version="1.0" encoding="UTF-8"?>

<!-- generated on 2025-07-14 00:05:54 by Eclipse SUMO GUI Version 1.22.0
<sumoConfiguration xmlns:xsi="http://www.w3.org/2001/XMLSchema-instance" xsi:noNamespaceSchemaLocation="http://sumo.dlr.de/xsd/sumoConfiguration.xsd">

    <input>
        <net-file value="C:\Model-Skrzyzowania-w-SUMO\SumoBUSZKA\BuszkaMain.net.xml"/>
        <route-files value="C:\Model-Skrzyzowania-w-SUMO\SumoBUSZKA\routes15_45_16_45.rou.xml"/>
    </input>

    <output>
        <fcd-output value="C:\Model-Skrzyzowania-w-SUMO\SumoBUSZKA\fcd_poludnie.xml"/>
        <queue-output value="C:\Model-Skrzyzowania-w-SUMO\SumoBUSZKA\queues_poludnie.xml"/>
        <summary-output value="C:\Model-Skrzyzowania-w-SUMO\SumoBUSZKA\summary_poludnie.xml"/>
        <tripinfo-output value="C:\Model-Skrzyzowania-w-SUMO\SumoBUSZKA\tripinfo_poludnie.xml"/>
    </output>

    <time>
        <begin value="0"/>
        <end value="3600"/>
    </time>

    <processing>
        <ignore-route-errors value="true"/>
        <tls.actuated.jam-threshold value="30"/>
    </processing>

    <routing>
        <device.rerouting.adaptation-steps value="18"/>
        <device.rerouting.adaptation-interval value="10"/>
    </routing>

    <report>
        <verbose value="true"/>
        <duration-log.statistics value="true"/>
        <no-step-log value="true"/>
    </report>

    <gui_only>
        <gui-settings-file value="C:\Model-Skrzyzowania-w-SUMO\SumoBUSZKA\../2025-04-22-13-34-51/osm.view.xml"/>
    </gui_only>

</sumoConfiguration>
-->

<fcd-export xmlns:xsi="http://www.w3.org/2001/XMLSchema-instance" xsi:noNamespaceSchemaLocation="http://sumo.dlr.de/xsd/fcd_file.xsd">
    <timestep time="0.00">
        <vehicle id="flow_AiL_2.0" x="229.29" y="922.55" angle="201.59" type="type1" speed="0.00" pos="5.10" lane="Ai_1" slope="0.00"/>
        <vehicle id="flow_Ai_0.0" x="226.30" y="923.69" angle="201.57" type="type1" speed="0.00" pos="5.10" lane="Ai_0" slope="0.00"/>
        <vehicle id="flow_Bi_0.0" x="269.51" y="772.46" angle="282.70" type="type1" speed="0.00" pos="5.10" lane="Bi_0" slope="0.00"/>
        <vehicle id="flow_Bi_1.0" x="268.82" y="769.34" angle="282.69" type="type1" speed="0.00" pos="5.10" lane="Bi_1" slope="0.00"/>
        <vehicle id="flow_Ci_0.0" x="203.64" y="603.46" angle="5.32" type="type1" speed="0.00" pos="5.10" lane="Ci_0" slope="0.00"/>
        <vehicle id="flow_Di_0.0" x="142.91" y="788.78" angle="99.15" type="type1" speed="0.00" pos="5.10" lane="Di_0" slope="0.00"/>
    </timestep>
    <timestep time="1.00">
        <vehicle id="flow_AiL_2.0" x="228.57" y="920.73" angle="201.59" type="type1" speed="1.96" pos="7.06" lane="Ai_1" slope="0.00"/>
        <vehicle id="flow_Ai_0.0" x="225.55" y="921.81" angle="201.57" type="type1" speed="2.01" pos="7.11" lane="Ai_0" slope="0.00"/>
        <vehicle id="flow_Bi_0.0" x="268.16" y="772.77" angle="282.70" type="type1" speed="1.38" pos="6.48" lane="Bi_0" slope="0.00"/>
        <vehicle id="flow_Bi_1.0" x="266.56" y="769.85" angle="282.69" type="type1" speed="2.32" pos="7.42" lane="Bi_1" slope="0.00"/>
        <vehicle id="flow_Ci_0.0" x="203.88" y="605.95" angle="5.32" type="type1" speed="2.51" pos="7.61" lane="Ci_0" slope="0.00"/>
        <vehicle id="flow_Di_0.0" x="145.41" y="788.38" angle="99.15" type="type1" speed="2.52" pos="7.62" lane="Di_0" slope="0.00"/>
    </timestep>
    <timestep time="2.00">
        <vehicle id="flow_AiL_2.0" x="227.07" y="916.58" angle="200.11" type="type1" speed="4.44" pos="11.50" lane="Ai_1" slope="0.00"/>
        <vehicle id="flow_Ai_0.0" x="224.14" y="918.23" angle="201.57" type="type1" speed="3.84" pos="10.95" lane="Ai_0" slope="0.00"/>
        <vehicle id="flow_Bi_0.0" x="264.35" y="773.62" angle="282.70" type="type1" speed="3.90" pos="10.37" lane="Bi_0" slope="0.00"/>
        <vehicle id="flow_Bi_1.0" x="261.90" y="770.90" angle="282.69" type="type1" speed="4.78" pos="12.21" lane="Bi_1" slope="0.00"/>
        <vehicle id="flow_Ci_0.0" x="204.31" y="610.56" angle="5.32" type="type1" speed="4.62" pos="12.23" lane="Ci_0" slope="0.00"/>
        <vehicle id="flow_Di_0.0" x="149.50" y="787.72" angle="99.15" type="type1" speed="4.15" pos="11.77" lane="Di_0" slope="0.00"/>
    </timestep>
    <timestep time="3.00">
        <vehicle id="flow_AiL_2.0" x="226.00" y="910.87" angle="190.58" type="type1" speed="5.83" pos="17.33" lane="Ai_1" slope="0.00"/>
        <vehicle id="flow_Ai_0.0" x="223.13" y="912.93" angle="190.57" type="type1" speed="5.37" pos="16.32" lane="Ai_0" slope="0.00"/>
        <vehicle id="flow_Ai_1.0" x="226.30" y="923.69" angle="201.57" type="type1" speed="0.00" pos="5.10" lane="Ai_0" slope="0.00"/>
        <vehicle id="flow_Bi_0.0" x="258.25" y="775.00" angle="282.70" type="type1" speed="6.25" pos="16.62" lane="Bi_0" slope="0.00"/>
        <vehicle id="flow_Bi_1.0" x="255.56" y="772.33" angle="282.69" type="type1" speed="6.51" pos="18.72" lane="Bi_1" slope="0.00"/>
        <vehicle id="flow_Bi_2.0" x="268.82" y="769.34" angle="282.69" type="type1" speed="0.00" pos="5.10" lane="Bi_1" slope="0.00"/>
        <vehicle id="flow_Ci_0.0" x="204.86" y="616.50" angle="5.32" type="type1" speed="5.96" pos="18.19" lane="Ci_0" slope="0.00"/>
        <vehicle id="flow_Ci_1.0" x="203.64" y="603.46" angle="5.32" type="type1" speed="0.00" pos="5.10" lane="Ci_0" slope="0.00"/>
        <vehicle id="flow_Di_0.0" x="155.13" y="786.81" angle="99.15" type="type1" speed="5.70" pos="17.47" lane="Di_0" slope="0.00"/>
        <vehicle id="flow_Di_1.0" x="142.91" y="788.78" angle="99.15" type="type1" speed="0.00" pos="5.10" lane="Di_0" slope="0.00"/>
    </timestep>
    <timestep time="4.00">
        <vehicle id="flow_AiL_2.0" x="224.83" y="902.78" angle="188.03" type="type1" speed="8.21" pos="25.54" lane="Ai_1" slope="0.00"/>
        <vehicle id="flow_Ai_0.0" x="221.94" y="905.20" angle="188.03" type="type1" speed="7.80" pos="24.12" lane="Ai_0" slope="0.00"/>
        <vehicle id="flow_Ai_1.0" x="225.76" y="922.34" angle="201.57" type="type1" speed="1.44" pos="6.54" lane="Ai_0" slope="0.00"/>
        <vehicle id="flow_Bi_0.0" x="249.99" y="776.86" angle="282.70" type="type1" speed="8.46" pos="25.08" lane="Bi_0" slope="0.00"/>
        <vehicle id="flow_Bi_1.0" x="247.47" y="774.15" angle="282.69" type="type1" speed="8.30" pos="27.02" lane="Bi_1" slope="0.00"/>
        <vehicle id="flow_Bi_2.0" x="267.18" y="769.71" angle="282.69" type="type1" speed="1.69" pos="6.79" lane="Bi_1" slope="0.00"/>
        <vehicle id="flow_Ci_0.0" x="205.56" y="624.05" angle="5.32" type="type1" speed="7.59" pos="25.78" lane="Ci_0" slope="0.00"/>
        <vehicle id="flow_Ci_1.0" x="203.77" y="604.82" angle="5.32" type="type1" speed="1.37" pos="6.47" lane="Ci_0" slope="0.00"/>
        <vehicle id="flow_Di_0.0" x="163.25" y="785.50" angle="99.15" type="type1" speed="8.23" pos="25.70" lane="Di_0" slope="0.00"/>
        <vehicle id="flow_Di_1.0" x="144.51" y="788.52" angle="99.15" type="type1" speed="1.61" pos="6.71" lane="Di_0" slope="0.00"/>
    </timestep>
    <timestep time="5.00">
        <vehicle id="flow_AiL_2.0" x="223.58" y="893.25" angle="186.95" type="type1" speed="9.65" pos="35.19" lane="Ai_1" slope="0.00"/>
        <vehicle id="flow_Ai_0.0" x="220.60" y="895.70" angle="188.03" type="type1" speed="9.56" pos="33.68" lane="Ai_0" slope="0.00"/>
        <vehicle id="flow_Ai_1.0" x="224.70" y="919.66" angle="201.57" type="type1" speed="2.87" pos="9.42" lane="Ai_0" slope="0.00"/>
        <vehicle id="flow_Bi_0.0" x="240.37" y="778.96" angle="281.97" type="type1" speed="9.82" pos="34.90" lane="Bi_0" slope="0.00"/>
        <vehicle id="flow_Bi_1.0" x="237.15" y="776.36" angle="281.65" type="type1" speed="10.57" pos="37.59" lane="Bi_1" slope="0.00"/>
        <vehicle id="flow_Bi_2.0" x="264.09" y="770.40" angle="282.69" type="type1" speed="3.17" pos="9.96" lane="Bi_1" slope="0.00"/>
        <vehicle id="flow_Ci_0.0" x="206.46" y="633.71" angle="5.32" type="type1" speed="9.70" pos="35.48" lane="Ci_0" slope="0.00"/>
        <vehicle id="flow_Ci_1.0" x="204.09" y="608.30" angle="5.32" type="type1" speed="3.50" pos="9.97" lane="Ci_0" slope="0.00"/>
        <vehicle id="flow_Di_0.0" x="173.23" y="783.89" angle="99.15" type="type1" speed="10.11" pos="35.81" lane="Di_0" slope="0.00"/>
        <vehicle id="flow_Di_1.0" x="147.94" y="787.97" angle="99.15" type="type1" speed="3.48" pos="10.19" lane="Di_0" slope="0.00"/>
    </timestep>
    <timestep time="6.00">
        <vehicle id="flow_AiL_2.0" x="222.64" y="882.28" angle="184.92" type="type1" speed="11.06" pos="46.24" lane="Ai_1" slope="0.00"/>
        <vehicle id="flow_Ai_0.0" x="219.59" y="884.21" angle="184.92" type="type1" speed="11.48" pos="45.16" lane="Ai_0" slope="0.00"/>
        <vehicle id="flow_Ai_1.0" x="223.48" y="914.78" angle="194.11" type="type1" speed="5.03" pos="14.45" lane="Ai_0" slope="0.00"/>
        <vehicle id="flow_Bi_0.0" x="228.66" y="781.25" angle="280.16" type="type1" speed="11.91" pos="46.81" lane="Bi_0" slope="0.00"/>
        <vehicle id="flow_Bi_1.0" x="224.60" y="778.70" angle="279.76" type="type1" speed="12.79" pos="1.53" lane=":J_4_0" slope="0.00"/>
        <vehicle id="flow_Bi_2.0" x="259.56" y="771.42" angle="282.69" type="type1" speed="4.66" pos="14.61" lane="Bi_1" slope="0.00"/>
        <vehicle id="flow_Ci_0.0" x="207.49" y="644.69" angle="5.32" type="type1" speed="11.04" pos="46.52" lane="Ci_0" slope="0.00"/>
        <vehicle id="flow_Ci_1.0" x="204.58" y="613.53" angle="5.32" type="type1" speed="5.25" pos="15.22" lane="Ci_0" slope="0.00"/>
        <vehicle id="flow_Ci_2.0" x="203.64" y="603.46" angle="5.32" type="type1" speed="0.00" pos="5.10" lane="Ci_0" slope="0.00"/>
        <vehicle id="flow_Di_0.0" x="184.92" y="782.01" angle="99.15" type="type1" speed="11.84" pos="47.65" lane="Di_0" slope="0.00"/>
        <vehicle id="flow_Di_1.0" x="153.71" y="787.04" angle="99.15" type="type1" speed="5.84" pos="16.03" lane="Di_0" slope="0.00"/>
        <vehicle id="flow_Di_2.0" x="142.91" y="788.78" angle="99.15" type="type1" speed="0.00" pos="5.10" lane="Di_0" slope="0.00"/>
    </timestep>
    <timestep time="7.00">
        <vehicle id="flow_AiL_2.0" x="221.68" y="869.24" angle="183.17" type="type1" speed="13.12" pos="59.37" lane="Ai_1" slope="0.00"/>
        <vehicle id="flow_Ai_0.0" x="218.58" y="871.19" angle="183.67" type="type1" speed="13.01" pos="58.17" lane="Ai_0" slope="0.00"/>
        <vehicle id="flow_Ai_1.0" x="222.39" y="908.35" angle="189.32" type="type1" speed="6.50" pos="20.95" lane="Ai_0" slope="0.00"/>
        <vehicle id="flow_Ai_1.1" x="226.30" y="923.69" angle="201.57" type="type1" speed="0.00" pos="5.10" lane="Ai_0" slope="0.00"/>
        <vehicle id="flow_Bi_0.0" x="221.89" y="783.88" angle="296.43" type="type1" speed="7.41" pos="5.37" lane=":J_3_0" slope="0.00"/>
        <vehicle id="flow_Bi_1.0" x="211.06" y="781.01" angle="279.67" type="type1" speed="13.74" pos="15.27" lane=":J_4_0" slope="0.00"/>
        <vehicle id="flow_Bi_2.0" x="252.89" y="772.93" angle="282.69" type="type1" speed="6.85" pos="21.46" lane="Bi_1" slope="0.00"/>
        <vehicle id="flow_Ci_0.0" x="208.71" y="657.80" angle="5.32" type="type1" speed="13.16" pos="59.68" lane="Ci_0" slope="0.00"/>
        <vehicle id="flow_Ci_1.0" x="205.19" y="620.08" angle="5.32" type="type1" speed="6.57" pos="21.79" lane="Ci_0" slope="0.00"/>
        <vehicle id="flow_Ci_2.0" x="203.79" y="605.00" angle="5.32" type="type1" speed="1.55" pos="6.65" lane="Ci_0" slope="0.00"/>
        <vehicle id="flow_Di_0.0" x="195.84" y="780.25" angle="99.15" type="type1" speed="11.05" pos="58.70" lane="Di_0" slope="0.00"/>
        <vehicle id="flow_Di_1.0" x="161.62" y="785.76" angle="99.15" type="type1" speed="8.01" pos="24.04" lane="Di_0" slope="0.00"/>
        <vehicle id="flow_Di_2.0" x="144.64" y="788.50" angle="99.15" type="type1" speed="1.75" pos="6.85" lane="Di_0" slope="0.00"/>
    </timestep>
    <timestep time="8.00">
        <vehicle id="flow_AiL_2.0" x="220.96" y="856.32" angle="183.17" type="type1" speed="12.98" pos="72.35" lane="Ai_1" slope="0.00"/>
        <vehicle id="flow_Ai_0.0" x="217.78" y="856.75" angle="183.16" type="type1" speed="14.41" pos="72.59" lane="Ai_0" slope="0.00"/>
        <vehicle id="flow_Ai_1.0" x="221.19" y="899.88" angle="188.03" type="type1" speed="8.53" pos="29.47" lane="Ai_0" slope="0.00"/>
        <vehicle id="flow_Ai_1.1" x="225.44" y="921.52" angle="201.57" type="type1" speed="2.32" pos="7.42" lane="Ai_0" slope="0.00"/>
        <vehicle id="flow_Bi_0.0" x="220.70" y="791.00" angle="358.62" type="type1" speed="7.42" pos="2.93" lane="Ao_0" slope="0.00"/>
        <vehicle id="flow_Bi_1.0" x="197.57" y="783.21" angle="279.15" type="type1" speed="13.67" pos="10.66" lane="Do_0" slope="0.00"/>
        <vehicle id="flow_Bi_2.0" x="243.77" y="774.98" angle="282.69" type="type1" speed="9.36" pos="30.82" lane="Bi_1" slope="0.00"/>
        <vehicle id="flow_Ci_0.0" x="209.95" y="671.12" angle="5.32" type="type1" speed="13.38" pos="73.06" lane="Ci_0" slope="0.00"/>
        <vehicle id="flow_Ci_1.0" x="205.97" y="628.37" angle="5.32" type="type1" speed="8.33" pos="30.12" lane="Ci_0" slope="0.00"/>
        <vehicle id="flow_Ci_2.0" x="204.11" y="608.51" angle="5.32" type="type1" speed="3.53" pos="10.18" lane="Ci_0" slope="0.00"/>
        <vehicle id="flow_Di_0.0" x="206.16" y="778.59" angle="99.15" type="type1" speed="10.45" pos="69.16" lane="Di_0" slope="0.00"/>
        <vehicle id="flow_Di_1.0" x="171.09" y="784.24" angle="99.15" type="type1" speed="9.59" pos="33.64" lane="Di_0" slope="0.00"/>
        <vehicle id="flow_Di_2.0" x="148.39" y="787.90" angle="99.15" type="type1" speed="3.80" pos="10.65" lane="Di_0" slope="0.00"/>
    </timestep>
    <timestep time="9.00">
        <vehicle id="flow_AiL_2.0" x="220.19" y="842.37" angle="183.17" type="type1" speed="14.03" pos="86.38" lane="Ai_1" slope="0.00"/>
        <vehicle id="flow_Ai_0.0" x="217.04" y="843.27" angle="183.16" type="type1" speed="13.45" pos="86.04" lane="Ai_0" slope="0.00"/>
        <vehicle id="flow_Ai_1.0" x="220.06" y="889.59" angle="184.92" type="type1" speed="10.31" pos="39.78" lane="Ai_0" slope="0.00"/>
        <vehicle id="flow_Ai_1.1" x="223.99" y="917.55" angle="200.28" type="type1" speed="4.22" pos="11.64" lane="Ai_0" slope="0.00"/>
        <vehicle id="flow_Bi_0.0" x="221.11" y="800.61" angle="2.45" type="type1" speed="9.62" pos="12.54" lane="Ao_0" slope="0.00"/>
        <vehicle id="flow_Bi_1.0" x="183.82" y="785.43" angle="279.15" type="type1" speed="13.93" pos="24.59" lane="Do_0" slope="0.00"/>
        <vehicle id="flow_Bi_2.0" x="233.54" y="777.10" angle="281.65" type="type1" speed="10.46" pos="41.28" lane="Bi_1" slope="0.00"/>
        <vehicle id="flow_Ci_0.0" x="211.30" y="685.57" angle="5.32" type="type1" speed="14.51" pos="87.57" lane="Ci_0" slope="0.00"/>
        <vehicle id="flow_Ci_1.0" x="206.90" y="638.41" angle="5.32" type="type1" speed="10.09" pos="40.21" lane="Ci_0" slope="0.00"/>
        <vehicle id="flow_Ci_1.1" x="203.64" y="603.46" angle="5.32" type="type1" speed="0.00" pos="5.10" lane="Ci_0" slope="0.00"/>
        <vehicle id="flow_Ci_2.0" x="204.64" y="614.20" angle="5.32" type="type1" speed="5.71" pos="15.88" lane="Ci_0" slope="0.00"/>
        <vehicle id="flow_Di_0.0" x="211.90" y="777.12" angle="105.26" type="type1" speed="5.95" pos="4.54" lane=":J_9_0" slope="0.00"/>
        <vehicle id="flow_Di_1.0" x="182.04" y="782.47" angle="99.15" type="type1" speed="11.09" pos="44.73" lane="Di_0" slope="0.00"/>
        <vehicle id="flow_Di_2.0" x="154.44" y="786.92" angle="99.15" type="type1" speed="6.13" pos="16.78" lane="Di_0" slope="0.00"/>
    </timestep>
    <timestep time="10.00">
        <vehicle id="flow_AiL_2.0" x="219.45" y="828.96" angle="183.17" type="type1" speed="13.48" pos="99.86" lane="Ai_1" slope="0.00"/>
        <vehicle id="flow_Ai_0.0" x="216.28" y="829.52" angle="183.16" type="type1" speed="13.71" pos="99.75" lane="Ai_0" slope="0.00"/>
        <vehicle id="flow_Ai_1.0" x="219.04" y="877.79" angle="184.92" type="type1" speed="11.80" pos="51.58" lane="Ai_0" slope="0.00"/>
        <vehicle id="flow_Ai_1.1" x="222.77" y="911.01" angle="190.57" type="type1" speed="6.63" pos="18.27" lane="Ai_0" slope="0.00"/>
        <vehicle id="flow_Bi_0.0" x="221.73" y="812.23" angle="3.17" type="type1" speed="11.63" pos="24.18" lane="Ao_0" slope="0.00"/>
        <vehicle id="flow_Bi_1.0" x="169.77" y="787.69" angle="279.15" type="type1" speed="14.23" pos="38.82" lane="Do_0" slope="0.00"/>
        <vehicle id="flow_Bi_2.0" x="227.69" y="778.17" angle="280.07" type="type1" speed="5.96" pos="47.24" lane="Bi_1" slope="0.00"/>
        <vehicle id="flow_Ci_0.0" x="212.57" y="699.20" angle="5.32" type="type1" speed="13.69" pos="101.26" lane="Ci_0" slope="0.00"/>
        <vehicle id="flow_Ci_1.0" x="207.99" y="650.12" angle="5.32" type="type1" speed="11.76" pos="51.97" lane="Ci_0" slope="0.00"/>
        <vehicle id="flow_Ci_1.1" x="203.87" y="605.85" angle="5.32" type="type1" speed="2.40" pos="7.50" lane="Ci_0" slope="0.00"/>
        <vehicle id="flow_Ci_2.0" x="205.32" y="621.44" angle="5.32" type="type1" speed="7.28" pos="23.16" lane="Ci_0" slope="0.00"/>
        <vehicle id="flow_Di_0.0" x="216.05" y="772.47" angle="144.40" type="type1" speed="6.60" pos="11.14" lane=":J_9_0" slope="0.00"/>
        <vehicle id="flow_Di_1.0" x="194.48" y="780.47" angle="99.15" type="type1" speed="12.60" pos="57.33" lane="Di_0" slope="0.00"/>
        <vehicle id="flow_Di_2.0" x="162.32" y="785.65" angle="99.15" type="type1" speed="7.98" pos="24.75" lane="Di_0" slope="0.00"/>
    </timestep>
    <timestep time="11.00">
        <vehicle id="flow_AiL_2.0" x="218.74" y="816.19" angle="183.17" type="type1" speed="12.84" pos="112.70" lane="Ai_1" slope="0.00"/>
        <vehicle id="flow_Ai_0.0" x="215.51" y="815.57" angle="183.16" type="type1" speed="13.92" pos="113.67" lane="Ai_0" slope="0.00"/>
        <vehicle id="flow_Ai_1.0" x="218.27" y="865.51" angle="183.16" type="type1" speed="12.26" pos="63.85" lane="Ai_0" slope="0.00"/>
        <vehicle id="flow_Ai_1.1" x="221.48" y="901.92" angle="188.03" type="type1" speed="9.15" pos="27.42" lane="Ai_0" slope="0.00"/>
        <vehicle id="flow_Bi_0.0" x="222.52" y="826.42" angle="3.17" type="type1" speed="14.22" pos="38.40" lane="Ao_0" slope="0.00"/>
        <vehicle id="flow_Bi_1.0" x="155.90" y="789.93" angle="279.15" type="type1" speed="14.05" pos="52.87" lane="Do_0" slope="0.00"/>
        <vehicle id="flow_Bi_2.0" x="222.33" y="778.53" angle="273.46" type="type1" speed="5.39" pos="3.78" lane=":J_5_0" slope="0.00"/>
        <vehicle id="flow_Ci_0.0" x="213.84" y="712.81" angle="5.32" type="type1" speed="13.67" pos="114.93" lane="Ci_0" slope="0.00"/>
        <vehicle id="flow_Ci_1.0" x="209.07" y="661.70" angle="5.32" type="type1" speed="11.62" pos="63.59" lane="Ci_0" slope="0.00"/>
        <vehicle id="flow_Ci_1.1" x="204.25" y="609.93" angle="5.32" type="type1" speed="4.10" pos="11.60" lane="Ci_0" slope="0.00"/>
        <vehicle id="flow_Ci_2.0" x="206.21" y="631.01" angle="5.32" type="type1" speed="9.62" pos="32.78" lane="Ci_0" slope="0.00"/>
        <vehicle id="flow_Di_0.0" x="215.82" y="766.26" angle="184.45" type="type1" speed="6.24" pos="4.61" lane="Co_0" slope="0.00"/>
        <vehicle id="flow_Di_1.0" x="204.28" y="778.89" angle="99.15" type="type1" speed="9.93" pos="67.26" lane="Di_0" slope="0.00"/>
        <vehicle id="flow_Di_2.0" x="171.61" y="784.15" angle="99.15" type="type1" speed="9.42" pos="34.17" lane="Di_0" slope="0.00"/>
    </timestep>
    <timestep time="12.00">
        <vehicle id="flow_AiL_2.0" x="218.04" y="803.58" angle="183.17" type="type1" speed="12.67" pos="125.37" lane="Ai_1" slope="0.00"/>
        <vehicle id="flow_AiL_2.1" x="229.29" y="922.55" angle="201.59" type="type1" speed="0.00" pos="5.10" lane="Ai_1" slope="0.00"/>
        <vehicle id="flow_Ai_0.0" x="214.80" y="802.81" angle="183.16" type="type1" speed="12.74" pos="126.41" lane="Ai_0" slope="0.00"/>
        <vehicle id="flow_Ai_1.0" x="217.58" y="852.97" angle="183.16" type="type1" speed="12.50" pos="76.35" lane="Ai_0" slope="0.00"/>
        <vehicle id="flow_Ai_1.1" x="220.17" y="890.90" angle="185.28" type="type1" speed="11.05" pos="38.47" lane="Ai_0" slope="0.00"/>
        <vehicle id="flow_Bi_0.0" x="223.33" y="841.02" angle="3.17" type="type1" speed="14.61" pos="53.01" lane="Ao_0" slope="0.00"/>
        <vehicle id="flow_Bi_0.1" x="269.51" y="772.46" angle="282.70" type="type1" speed="0.00" pos="5.10" lane="Bi_0" slope="0.00"/>
        <vehicle id="flow_Bi_1.0" x="142.08" y="792.15" angle="279.15" type="type1" speed="14.00" pos="66.86" lane="Do_0" slope="0.00"/>
        <vehicle id="flow_Bi_2.0" x="217.97" y="775.77" angle="235.92" type="type1" speed="5.37" pos="9.15" lane=":J_5_0" slope="0.00"/>
        <vehicle id="flow_Ci_0.0" x="215.07" y="726.07" angle="5.32" type="type1" speed="13.32" pos="128.25" lane="Ci_0" slope="0.00"/>
        <vehicle id="flow_Ci_1.0" x="210.11" y="672.80" angle="5.32" type="type1" speed="11.15" pos="74.74" lane="Ci_0" slope="0.00"/>
        <vehicle id="flow_Ci_1.1" x="204.83" y="616.15" angle="5.32" type="type1" speed="6.26" pos="17.85" lane="Ci_0" slope="0.00"/>
        <vehicle id="flow_Ci_2.0" x="207.29" y="642.58" angle="5.32" type="type1" speed="11.62" pos="44.40" lane="Ci_0" slope="0.00"/>
        <vehicle id="flow_Di_0.0" x="215.00" y="757.64" angle="185.40" type="type1" speed="8.66" pos="13.27" lane="Co_0" slope="0.00"/>
        <vehicle id="flow_Di_1.0" x="211.16" y="777.74" angle="99.58" type="type1" speed="6.98" pos="3.66" lane=":J_10_0" slope="0.00"/>
        <vehicle id="flow_Di_2.0" x="182.61" y="782.38" angle="99.15" type="type1" speed="11.14" pos="45.31" lane="Di_0" slope="0.00"/>
    </timestep>
    <timestep time="13.00">
        <vehicle id="flow_AiL_2.0" x="217.63" y="794.33" angle="182.45" type="type1" speed="9.30" pos="134.68" lane="Ai_1" slope="0.00"/>
        <vehicle id="flow_AiL_2.1" x="228.55" y="920.69" angle="201.59" type="type1" speed="2.01" pos="7.11" lane="Ai_1" slope="0.00"/>
        <vehicle id="flow_Ai_0.0" x="214.44" y="794.55" angle="182.49" type="type1" speed="8.24" pos="134.64" lane="Ai_0" slope="0.00"/>
        <vehicle id="flow_Ai_1.0" x="216.90" y="840.79" angle="183.16" type="type1" speed="12.15" pos="88.51" lane="Ai_0" slope="0.00"/>
        <vehicle id="flow_Ai_1.1" x="219.06" y="877.97" angle="184.92" type="type1" speed="12.93" pos="51.40" lane="Ai_0" slope="0.00"/>
        <vehicle id="flow_Bi_0.0" x="224.12" y="855.37" angle="3.17" type="type1" speed="14.38" pos="67.39" lane="Ao_0" slope="0.00"/>
        <vehicle id="flow_Bi_0.1" x="267.55" y="772.90" angle="282.70" type="type1" speed="2.00" pos="7.10" lane="Bi_0" slope="0.00"/>
        <vehicle id="flow_Bi_2.0" x="216.13" y="769.62" angle="191.57" type="type1" speed="6.53" pos="1.23" lane="Co_0" slope="0.00"/>
        <vehicle id="flow_Ci_0.0" x="216.34" y="739.71" angle="5.32" type="type1" speed="13.69" pos="141.94" lane="Ci_0" slope="0.00"/>
        <vehicle id="flow_Ci_1.0" x="211.16" y="684.10" angle="5.32" type="type1" speed="11.35" pos="86.09" lane="Ci_0" slope="0.00"/>
        <vehicle id="flow_Ci_1.1" x="205.55" y="623.93" angle="5.32" type="type1" speed="7.81" pos="25.66" lane="Ci_0" slope="0.00"/>
        <vehicle id="flow_Ci_2.0" x="208.42" y="654.72" angle="5.32" type="type1" speed="12.19" pos="56.59" lane="Ci_0" slope="0.00"/>
        <vehicle id="flow_Di_0.0" x="214.05" y="747.57" angle="185.40" type="type1" speed="10.11" pos="23.39" lane="Co_0" slope="0.00"/>
        <vehicle id="flow_Di_1.0" x="213.60" y="777.33" angle="99.70" type="type1" speed="2.48" pos="6.14" lane=":J_10_0" slope="0.00"/>
        <vehicle id="flow_Di_2.0" x="194.43" y="780.48" angle="99.15" type="type1" speed="11.97" pos="57.28" lane="Di_0" slope="0.00"/>
    </timestep>
    <timestep time="14.00">
        <vehicle id="flow_AiL_2.0" x="217.43" y="789.55" angle="182.45" type="type1" speed="4.80" pos="139.48" lane="Ai_1" slope="0.00"/>
        <vehicle id="flow_AiL_2.1" x="227.05" y="916.49" angle="199.92" type="type1" speed="4.48" pos="11.59" lane="Ai_1" slope="0.00"/>
        <vehicle id="flow_Ai_0.0" x="214.26" y="790.44" angle="182.49" type="type1" speed="4.09" pos="138.73" lane="Ai_0" slope="0.00"/>
        <vehicle id="flow_Ai_1.0" x="216.23" y="828.70" angle="183.16" type="type1" speed="12.06" pos="100.57" lane="Ai_0" slope="0.00"/>
        <vehicle id="flow_Ai_1.1" x="218.22" y="864.57" angle="183.16" type="type1" speed="13.38" pos="64.78" lane="Ai_0" slope="0.00"/>
        <vehicle id="flow_Ai_1.2" x="226.30" y="923.69" angle="201.57" type="type1" speed="0.00" pos="5.10" lane="Ai_0" slope="0.00"/>
        <vehicle id="flow_Bi_0.0" x="224.94" y="870.08" angle="3.17" type="type1" speed="14.74" pos="82.13" lane="Ao_0" slope="0.00"/>
        <vehicle id="flow_Bi_0.1" x="263.89" y="773.73" angle="282.70" type="type1" speed="3.75" pos="10.85" lane="Bi_0" slope="0.00"/>
        <vehicle id="flow_Bi_2.0" x="215.32" y="761.01" angle="185.40" type="type1" speed="8.66" pos="9.89" lane="Co_0" slope="0.00"/>
        <vehicle id="flow_Ci_0.0" x="217.60" y="753.23" angle="5.32" type="type1" speed="13.58" pos="155.52" lane="Ci_0" slope="0.00"/>
        <vehicle id="flow_Ci_1.0" x="212.24" y="695.71" angle="5.32" type="type1" speed="11.66" pos="97.75" lane="Ci_0" slope="0.00"/>
        <vehicle id="flow_Ci_1.1" x="206.47" y="633.81" angle="5.32" type="type1" speed="9.93" pos="35.59" lane="Ci_0" slope="0.00"/>
        <vehicle id="flow_Ci_2.0" x="209.60" y="667.42" angle="5.32" type="type1" speed="12.75" pos="69.34" lane="Ci_0" slope="0.00"/>
        <vehicle id="flow_Di_0.0" x="212.95" y="735.89" angle="185.40" type="type1" speed="11.73" pos="35.12" lane="Co_0" slope="0.00"/>
        <vehicle id="flow_Di_1.0" x="217.51" y="776.66" angle="99.70" type="type1" speed="3.97" pos="10.11" lane=":J_10_0" slope="0.00"/>
        <vehicle id="flow_Di_2.0" x="202.32" y="779.21" angle="99.15" type="type1" speed="8.00" pos="65.27" lane="Di_0" slope="0.00"/>
    </timestep>
    <timestep time="15.00">
        <vehicle id="flow_AiL_2.0" x="217.41" y="789.25" angle="182.45" type="type1" speed="0.30" pos="139.78" lane="Ai_1" slope="0.00"/>
        <vehicle id="flow_AiL_2.1" x="225.90" y="910.35" angle="190.58" type="type1" speed="6.27" pos="17.86" lane="Ai_1" slope="0.00"/>
        <vehicle id="flow_Ai_0.0" x="213.50" y="784.68" angle="188.39" type="type1" speed="5.84" pos="3.75" lane=":J_0_0" slope="0.00"/>
        <vehicle id="flow_Ai_1.0" x="215.57" y="816.66" angle="183.16" type="type1" speed="12.02" pos="112.59" lane="Ai_0" slope="0.00"/>
        <vehicle id="flow_Ai_1.1" x="217.43" y="850.30" angle="183.16" type="type1" speed="14.24" pos="79.02" lane="Ai_0" slope="0.00"/>
        <vehicle id="flow_Ai_1.2" x="225.66" y="922.07" angle="201.57" type="type1" speed="1.74" pos="6.84" lane="Ai_0" slope="0.00"/>
        <vehicle id="flow_Bi_0.0" x="226.00" y="884.01" angle="4.90" type="type1" speed="13.97" pos="96.09" lane="Ao_0" slope="0.00"/>
        <vehicle id="flow_Bi_0.1" x="257.73" y="775.11" angle="282.70" type="type1" speed="6.29" pos="17.15" lane="Bi_0" slope="0.00"/>
        <vehicle id="flow_Bi_2.0" x="214.27" y="749.84" angle="185.40" type="type1" speed="11.21" pos="21.10" lane="Co_0" slope="0.00"/>
        <vehicle id="flow_Ci_0.0" x="218.45" y="762.27" angle="5.32" type="type1" speed="9.08" pos="164.60" lane="Ci_0" slope="0.00"/>
        <vehicle id="flow_Ci_1.0" x="213.28" y="706.84" angle="5.32" type="type1" speed="11.18" pos="108.93" lane="Ci_0" slope="0.00"/>
        <vehicle id="flow_Ci_1.1" x="207.52" y="645.05" angle="5.32" type="type1" speed="11.29" pos="46.88" lane="Ci_0" slope="0.00"/>
        <vehicle id="flow_Ci_2.0" x="210.78" y="679.99" angle="5.32" type="type1" speed="12.63" pos="81.96" lane="Ci_0" slope="0.00"/>
        <vehicle id="flow_Di_0.0" x="211.90" y="724.84" angle="185.40" type="type1" speed="11.09" pos="46.21" lane="Co_0" slope="0.00"/>
        <vehicle id="flow_Di_1.0" x="223.40" y="775.65" angle="99.70" type="type1" speed="5.98" pos="16.09" lane=":J_10_0" slope="0.00"/>
        <vehicle id="flow_Di_2.0" x="207.99" y="778.35" angle="98.52" type="type1" speed="5.74" pos="0.45" lane=":J_11_0" slope="0.00"/>
    </timestep>
    <timestep time="16.00">
        <vehicle id="flow_AiL_2.0" x="217.41" y="789.21" angle="182.45" type="type1" speed="0.03" pos="139.81" lane="Ai_1" slope="0.00"/>
        <vehicle id="flow_AiL_2.1" x="224.70" y="901.85" angle="188.03" type="type1" speed="8.62" pos="26.48" lane="Ai_1" slope="0.00"/>
        <vehicle id="flow_Ai_0.0" x="209.01" y="781.54" angle="240.62" type="type1" speed="5.99" pos="9.74" lane=":J_0_0" slope="0.00"/>
        <vehicle id="flow_Ai_1.0" x="214.91" y="804.82" angle="183.16" type="type1" speed="11.81" pos="124.39" lane="Ai_0" slope="0.00"/>
        <vehicle id="flow_Ai_1.1" x="216.65" y="836.19" angle="183.16" type="type1" speed="14.08" pos="93.10" lane="Ai_0" slope="0.00"/>
        <vehicle id="flow_Ai_1.2" x="224.43" y="918.97" angle="201.57" type="type1" speed="3.31" pos="10.15" lane="Ai_0" slope="0.00"/>
        <vehicle id="flow_Bi_0.0" x="227.41" y="898.13" angle="7.12" type="type1" speed="14.20" pos="110.29" lane="Ao_0" slope="0.00"/>
        <vehicle id="flow_Bi_0.1" x="249.43" y="776.99" angle="282.70" type="type1" speed="8.50" pos="25.65" lane="Bi_0" slope="0.00"/>
        <vehicle id="flow_Bi_2.0" x="213.28" y="739.36" angle="185.40" type="type1" speed="10.53" pos="31.63" lane="Co_0" slope="0.00"/>
        <vehicle id="flow_Ci_0.0" x="218.99" y="767.49" angle="6.02" type="type1" speed="5.25" pos="169.85" lane="Ci_0" slope="0.00"/>
        <vehicle id="flow_Ci_1.0" x="214.35" y="718.31" angle="5.32" type="type1" speed="11.52" pos="120.45" lane="Ci_0" slope="0.00"/>
        <vehicle id="flow_Ci_1.1" x="208.69" y="657.63" angle="5.32" type="type1" speed="12.63" pos="59.51" lane="Ci_0" slope="0.00"/>