<?xml version="1.0" encoding="UTF-8"?>

<!-- generated on 2025-07-14 00:05:54 by Eclipse SUMO GUI Version 1.22.0
<sumoConfiguration xmlns:xsi="http://www.w3.org/2001/XMLSchema-instance" xsi:noNamespaceSchemaLocation="http://sumo.dlr.de/xsd/sumoConfiguration.xsd">

    <input>
        <net-file value="C:\Model-Skrzyzowania-w-SUMO\SumoBUSZKA\BuszkaMain.net.xml"/>
        <route-files value="C:\Model-Skrzyzowania-w-SUMO\SumoBUSZKA\routes15_45_16_45.rou.xml"/>
    </input>

    <output>
        <fcd-output value="C:\Model-Skrzyzowania-w-SUMO\SumoBUSZKA\fcd_poludnie.xml"/>
        <queue-output value="C:\Model-Skrzyzowania-w-SUMO\SumoBUSZKA\queues_poludnie.xml"/>
        <summary-output value="C:\Model-Skrzyzowania-w-SUMO\SumoBUSZKA\summary_poludnie.xml"/>
        <tripinfo-output value="C:\Model-Skrzyzowania-w-SUMO\SumoBUSZKA\tripinfo_poludnie.xml"/>
    </output>

    <time>
        <begin value="0"/>
        <end value="3600"/>
    </time>

    <processing>
        <ignore-route-errors value="true"/>
        <tls.actuated.jam-threshold value="30"/>
    </processing>

    <routing>
        <device.rerouting.adaptation-steps value="18"/>
        <device.rerouting.adaptation-interval value="10"/>
    </routing>

    <report>
        <verbose value="true"/>
        <duration-log.statistics value="true"/>
        <no-step-log value="true"/>
    </report>

    <gui_only>
        <gui-settings-file value="C:\Model-Skrzyzowania-w-SUMO\SumoBUSZKA\../2025-04-22-13-34-51/osm.view.xml"/>
    </gui_only>

</sumoConfiguration>
-->

<queue-export xmlns:xsi="http://www.w3.org/2001/XMLSchema-instance" xsi:noNamespaceSchemaLocation="http://sumo.dlr.de/xsd/queue_file.xsd">
    <data timestep="0.00">
        <lanes/>
    </data>
    <data timestep="1.00">
        <lanes/>
    </data>
    <data timestep="2.00">
        <lanes/>
    </data>
    <data timestep="3.00">
        <lanes/>
    </data>
    <data timestep="4.00">
        <lanes/>
    </data>
    <data timestep="5.00">
        <lanes/>
    </data>
    <data timestep="6.00">
        <lanes/>
    </data>
    <data timestep="7.00">
        <lanes/>
    </data>
    <data timestep="8.00">
        <lanes/>
    </data>
    <data timestep="9.00">
        <lanes/>
    </data>
    <data timestep="10.00">
        <lanes/>
    </data>
    <data timestep="11.00">
        <lanes/>
    </data>
    <data timestep="12.00">
        <lanes/>
    </data>
    <data timestep="13.00">
        <lanes/>
    </data>
    <data timestep="14.00">
        <lanes/>
    </data>
    <data timestep="15.00">
        <lanes>
            <lane id="Ai_1" queueing_time="0.00" queueing_length="0.00" queueing_length_experimental="6.04"/>
        </lanes>
    </data>
    <data timestep="16.00">
        <lanes>
            <lane id="Ai_1" queueing_time="1.00" queueing_length="6.01" queueing_length_experimental="6.01"/>
        </lanes>
    </data>
    <data timestep="17.00">
        <lanes>
            <lane id="Ai_1" queueing_time="2.00" queueing_length="6.00" queueing_length_experimental="6.00"/>
        </lanes>
    </data>
    <data timestep="18.00">
        <lanes>
            <lane id="Ai_1" queueing_time="3.00" queueing_length="6.00" queueing_length_experimental="6.00"/>
            <lane id="Ci_0" queueing_time="0.00" queueing_length="0.00" queueing_length_experimental="6.31"/>
        </lanes>
    </data>
    <data timestep="19.00">
        <lanes>
            <lane id="Ai_1" queueing_time="4.00" queueing_length="6.00" queueing_length_experimental="6.00"/>
            <lane id="Ci_0" queueing_time="0.00" queueing_length="0.00" queueing_length_experimental="6.10"/>
        </lanes>
    </data>
    <data timestep="20.00">
        <lanes>
            <lane id="Ai_0" queueing_time="0.00" queueing_length="0.00" queueing_length_experimental="6.04"/>
            <lane id="Ai_1" queueing_time="5.00" queueing_length="6.00" queueing_length_experimental="6.00"/>
            <lane id="Ci_0" queueing_time="1.00" queueing_length="6.02" queueing_length_experimental="6.02"/>
        </lanes>
    </data>
    <data timestep="21.00">
        <lanes>
            <lane id="Ai_0" queueing_time="1.00" queueing_length="6.02" queueing_length_experimental="6.02"/>
            <lane id="Ai_1" queueing_time="6.00" queueing_length="6.00" queueing_length_experimental="6.00"/>
            <lane id="Ci_0" queueing_time="2.00" queueing_length="6.01" queueing_length_experimental="6.01"/>
        </lanes>
    </data>
    <data timestep="22.00">
        <lanes>
            <lane id="Ai_0" queueing_time="2.00" queueing_length="6.01" queueing_length_experimental="13.65"/>
            <lane id="Ai_1" queueing_time="7.00" queueing_length="6.00" queueing_length_experimental="6.00"/>
            <lane id="Ci_0" queueing_time="3.00" queueing_length="13.53" queueing_length_experimental="13.53"/>
        </lanes>
    </data>
    <data timestep="23.00">
        <lanes>
            <lane id="Ai_0" queueing_time="3.00" queueing_length="13.57" queueing_length_experimental="13.57"/>
            <lane id="Ai_1" queueing_time="8.00" queueing_length="6.00" queueing_length_experimental="6.00"/>
            <lane id="Ci_0" queueing_time="4.00" queueing_length="13.51" queueing_length_experimental="21.78"/>
        </lanes>
    </data>
    <data timestep="24.00">
        <lanes>
            <lane id="Ai_0" queueing_time="4.00" queueing_length="13.53" queueing_length_experimental="13.53"/>
            <lane id="Ai_1" queueing_time="9.00" queueing_length="6.00" queueing_length_experimental="6.00"/>
            <lane id="Ci_0" queueing_time="5.00" queueing_length="13.51" queueing_length_experimental="21.24"/>
        </lanes>
    </data>
    <data timestep="25.00">
        <lanes>
            <lane id="Ai_0" queueing_time="5.00" queueing_length="13.50" queueing_length_experimental="13.50"/>
            <lane id="Ai_1" queueing_time="10.00" queueing_length="6.00" queueing_length_experimental="6.00"/>
            <lane id="Ci_0" queueing_time="6.00" queueing_length="13.50" queueing_length_experimental="29.15"/>
        </lanes>
    </data>
    <data timestep="26.00">
        <lanes>
            <lane id="Ai_0" queueing_time="6.00" queueing_length="13.50" queueing_length_experimental="13.50"/>
            <lane id="Ai_1" queueing_time="11.00" queueing_length="6.00" queueing_length_experimental="14.40"/>
            <lane id="Ci_0" queueing_time="7.00" queueing_length="21.03" queueing_length_experimental="28.59"/>
        </lanes>
    </data>
    <data timestep="27.00">
        <lanes>
            <lane id="Ai_0" queueing_time="7.00" queueing_length="13.50" queueing_length_experimental="13.50"/>
            <lane id="Ai_1" queueing_time="12.00" queueing_length="6.00" queueing_length_experimental="13.55"/>
            <lane id="Ci_0" queueing_time="8.00" queueing_length="28.55" queueing_length_experimental="28.55"/>
        </lanes>
    </data>
    <data timestep="28.00">
        <lanes>
            <lane id="Ai_0" queueing_time="8.00" queueing_length="13.50" queueing_length_experimental="13.50"/>
            <lane id="Ai_1" queueing_time="13.00" queueing_length="13.51" queueing_length_experimental="13.51"/>
            <lane id="Ci_0" queueing_time="9.00" queueing_length="28.53" queueing_length_experimental="28.53"/>
        </lanes>
    </data>
    <data timestep="29.00">
        <lanes>
            <lane id="Ai_0" queueing_time="7.00" queueing_length="13.50" queueing_length_experimental="21.45"/>
            <lane id="Ai_1" queueing_time="14.00" queueing_length="13.50" queueing_length_experimental="13.50"/>
            <lane id="Ci_0" queueing_time="8.00" queueing_length="28.51" queueing_length_experimental="28.51"/>
        </lanes>
    </data>
    <data timestep="30.00">
        <lanes>
            <lane id="Ai_0" queueing_time="0.00" queueing_length="0.00" queueing_length_experimental="21.11"/>
            <lane id="Ai_1" queueing_time="15.00" queueing_length="13.50" queueing_length_experimental="13.50"/>
            <lane id="Ci_0" queueing_time="5.00" queueing_length="28.51" queueing_length_experimental="28.51"/>
        </lanes>
    </data>
    <data timestep="31.00">
        <lanes>
            <lane id="Ai_0" queueing_time="0.00" queueing_length="0.00" queueing_length_experimental="19.95"/>
            <lane id="Ai_1" queueing_time="16.00" queueing_length="13.50" queueing_length_experimental="13.50"/>
            <lane id="Bi_0" queueing_time="0.00" queueing_length="0.00" queueing_length_experimental="6.19"/>
            <lane id="Ci_0" queueing_time="5.00" queueing_length="28.50" queueing_length_experimental="28.50"/>
        </lanes>
    </data>
    <data timestep="32.00">
        <lanes>
            <lane id="Ai_1" queueing_time="17.00" queueing_length="13.50" queueing_length_experimental="13.50"/>
            <lane id="Bi_0" queueing_time="0.00" queueing_length="0.00" queueing_length_experimental="6.09"/>
            <lane id="Ci_0" queueing_time="0.00" queueing_length="0.00" queueing_length_experimental="36.04"/>
        </lanes>
    </data>
    <data timestep="33.00">
        <lanes>
            <lane id="Ai_1" queueing_time="18.00" queueing_length="13.50" queueing_length_experimental="13.50"/>
            <lane id="Bi_0" queueing_time="1.00" queueing_length="6.03" queueing_length_experimental="6.03"/>
            <lane id="Ci_0" queueing_time="0.00" queueing_length="0.00" queueing_length_experimental="35.60"/>
        </lanes>
    </data>
    <data timestep="34.00">
        <lanes>
            <lane id="Ai_1" queueing_time="19.00" queueing_length="13.50" queueing_length_experimental="13.50"/>
            <lane id="Bi_0" queueing_time="2.00" queueing_length="6.00" queueing_length_experimental="6.00"/>
        </lanes>
    </data>
    <data timestep="35.00">
        <lanes>
            <lane id="Ai_1" queueing_time="20.00" queueing_length="13.50" queueing_length_experimental="13.50"/>
            <lane id="Bi_0" queueing_time="3.00" queueing_length="6.00" queueing_length_experimental="6.00"/>
        </lanes>
    </data>
    <data timestep="36.00">
        <lanes>
            <lane id=":J_8_0" queueing_time="1.00" queueing_length="16.85" queueing_length_experimental="16.85"/>
            <lane id="Ai_1" queueing_time="21.00" queueing_length="13.50" queueing_length_experimental="13.50"/>
            <lane id="Bi_0" queueing_time="4.00" queueing_length="6.00" queueing_length_experimental="6.00"/>
        </lanes>
    </data>
    <data timestep="37.00">
        <lanes>
            <lane id=":J_8_0" queueing_time="2.00" queueing_length="16.85" queueing_length_experimental="16.85"/>
            <lane id="Ai_1" queueing_time="22.00" queueing_length="13.50" queueing_length_experimental="13.50"/>
            <lane id="Bi_0" queueing_time="5.00" queueing_length="6.00" queueing_length_experimental="6.00"/>
        </lanes>
    </data>
    <data timestep="38.00">
        <lanes>
            <lane id="Ai_1" queueing_time="23.00" queueing_length="13.50" queueing_length_experimental="21.19"/>
            <lane id="Bi_0" queueing_time="6.00" queueing_length="6.00" queueing_length_experimental="6.00"/>
            <lane id="Ci_0" queueing_time="0.00" queueing_length="0.00" queueing_length_experimental="5.44"/>
        </lanes>
    </data>
    <data timestep="39.00">
        <lanes>
            <lane id=":J_1_0" queueing_time="1.00" queueing_length="18.58" queueing_length_experimental="0.00"/>
            <lane id="Ai_1" queueing_time="24.00" queueing_length="13.50" queueing_length_experimental="21.01"/>
            <lane id="Bi_0" queueing_time="7.00" queueing_length="6.00" queueing_length_experimental="6.00"/>
            <lane id="Ci_0" queueing_time="0.00" queueing_length="0.00" queueing_length_experimental="12.96"/>
        </lanes>
    </data>
    <data timestep="40.00">
        <lanes>
            <lane id=":J_1_0" queueing_time="2.00" queueing_length="18.56" queueing_length_experimental="0.00"/>
            <lane id="Ai_1" queueing_time="25.00" queueing_length="21.01" queueing_length_experimental="21.01"/>
            <lane id="Bi_0" queueing_time="8.00" queueing_length="6.00" queueing_length_experimental="6.00"/>
            <lane id="Ci_0" queueing_time="0.00" queueing_length="0.00" queueing_length_experimental="12.65"/>
        </lanes>
    </data>
    <data timestep="41.00">
        <lanes>
            <lane id="Ai_1" queueing_time="26.00" queueing_length="21.00" queueing_length_experimental="21.00"/>
            <lane id="Bi_0" queueing_time="9.00" queueing_length="6.00" queueing_length_experimental="6.00"/>
            <lane id="Ci_0" queueing_time="0.00" queueing_length="0.00" queueing_length_experimental="20.51"/>
        </lanes>
    </data>
    <data timestep="42.00">
        <lanes>
            <lane id="Ai_1" queueing_time="27.00" queueing_length="21.00" queueing_length_experimental="21.00"/>
            <lane id="Bi_0" queueing_time="10.00" queueing_length="6.00" queueing_length_experimental="13.90"/>
            <lane id="Ci_0" queueing_time="0.00" queueing_length="0.00" queueing_length_experimental="19.38"/>
        </lanes>
    </data>
    <data timestep="43.00">
        <lanes>
            <lane id="Ai_1" queueing_time="28.00" queueing_length="21.00" queueing_length_experimental="21.00"/>
            <lane id="Bi_0" queueing_time="11.00" queueing_length="6.00" queueing_length_experimental="13.60"/>
        </lanes>
    </data>
    <data timestep="44.00">
        <lanes>
            <lane id="Ai_1" queueing_time="29.00" queueing_length="21.00" queueing_length_experimental="21.00"/>
            <lane id="Bi_0" queueing_time="12.00" queueing_length="13.51" queueing_length_experimental="13.51"/>
        </lanes>
    </data>
    <data timestep="45.00">
        <lanes>
            <lane id="Ai_1" queueing_time="30.00" queueing_length="21.00" queueing_length_experimental="21.00"/>
            <lane id="Bi_0" queueing_time="13.00" queueing_length="13.50" queueing_length_experimental="13.50"/>
        </lanes>
    </data>
    <data timestep="46.00">
        <lanes>
            <lane id="Ai_1" queueing_time="31.00" queueing_length="21.00" queueing_length_experimental="21.00"/>
            <lane id="Bi_0" queueing_time="14.00" queueing_length="13.50" queueing_length_experimental="13.50"/>
        </lanes>
    </data>
    <data timestep="47.00">
        <lanes>
            <lane id="Ai_1" queueing_time="32.00" queueing_length="21.00" queueing_length_experimental="21.00"/>
            <lane id="Bi_0" queueing_time="15.00" queueing_length="13.50" queueing_length_experimental="13.50"/>
        </lanes>
    </data>
    <data timestep="48.00">
        <lanes>
            <lane id="Ai_1" queueing_time="33.00" queueing_length="21.00" queueing_length_experimental="21.00"/>
            <lane id="Bi_0" queueing_time="16.00" queueing_length="13.50" queueing_length_experimental="13.50"/>
        </lanes>
    </data>
    <data timestep="49.00">
        <lanes>
            <lane id="Ai_1" queueing_time="34.00" queueing_length="21.00" queueing_length_experimental="28.90"/>
            <lane id="Bi_0" queueing_time="17.00" queueing_length="13.50" queueing_length_experimental="13.50"/>
        </lanes>
    </data>
    <data timestep="50.00">
        <lanes>
            <lane id="Ai_1" queueing_time="35.00" queueing_length="21.00" queueing_length_experimental="28.61"/>
            <lane id="Bi_0" queueing_time="18.00" queueing_length="13.50" queueing_length_experimental="13.50"/>
        </lanes>
    </data>
    <data timestep="51.00">
        <lanes>
            <lane id="Ai_1" queueing_time="36.00" queueing_length="28.53" queueing_length_experimental="28.53"/>
            <lane id="Bi_0" queueing_time="19.00" queueing_length="13.50" queueing_length_experimental="13.50"/>
        </lanes>
    </data>
    <data timestep="52.00">
        <lanes>
            <lane id="Ai_1" queueing_time="37.00" queueing_length="28.51" queueing_length_experimental="28.51"/>
            <lane id="Bi_0" queueing_time="20.00" queueing_length="13.50" queueing_length_experimental="21.08"/>
        </lanes>
    </data>
    <data timestep="53.00">
        <lanes>
            <lane id="Ai_1" queueing_time="38.00" queueing_length="28.50" queueing_length_experimental="28.50"/>
            <lane id="Bi_0" queueing_time="21.00" queueing_length="21.03" queueing_length_experimental="21.03"/>
        </lanes>
    </data>
    <data timestep="54.00">
        <lanes>
            <lane id="Ai_1" queueing_time="39.00" queueing_length="28.50" queueing_length_experimental="28.50"/>
            <lane id="Bi_0" queueing_time="22.00" queueing_length="21.01" queueing_length_experimental="21.01"/>
        </lanes>
    </data>
    <data timestep="55.00">
        <lanes>
            <lane id="Ai_1" queueing_time="40.00" queueing_length="28.50" queueing_length_experimental="28.50"/>
            <lane id="Bi_0" queueing_time="23.00" queueing_length="21.00" queueing_length_experimental="21.00"/>
        </lanes>
    </data>
    <data timestep="56.00">
        <lanes>
            <lane id="Ai_1" queueing_time="41.00" queueing_length="28.50" queueing_length_experimental="28.50"/>
            <lane id="Bi_0" queueing_time="24.00" queueing_length="21.00" queueing_length_experimental="21.00"/>
        </lanes>
    </data>
    <data timestep="57.00">
        <lanes>
            <lane id="Ai_1" queueing_time="42.00" queueing_length="28.50" queueing_length_experimental="28.50"/>
            <lane id="Bi_0" queueing_time="25.00" queueing_length="21.00" queueing_length_experimental="21.00"/>
        </lanes>
    </data>
    <data timestep="58.00">
        <lanes>
            <lane id="Ai_1" queueing_time="43.00" queueing_length="28.50" queueing_length_experimental="28.50"/>
            <lane id="Bi_0" queueing_time="26.00" queueing_length="21.00" queueing_length_experimental="21.00"/>
        </lanes>
    </data>
    <data timestep="59.00">
        <lanes>
            <lane id="Ai_1" queueing_time="44.00" queueing_length="28.50" queueing_length_experimental="28.50"/>
            <lane id="Bi_0" queueing_time="27.00" queueing_length="21.00" queueing_length_experimental="21.00"/>
        </lanes>
    </data>
    <data timestep="60.00">
        <lanes>
            <lane id="Ai_1" queueing_time="45.00" queueing_length="28.50" queueing_length_experimental="36.02"/>
            <lane id="Bi_0" queueing_time="28.00" queueing_length="21.00" queueing_length_experimental="21.00"/>
        </lanes>
    </data>
    <data timestep="61.00">
        <lanes>
            <lane id="Ai_1" queueing_time="46.00" queueing_length="36.01" queueing_length_experimental="36.01"/>
            <lane id="Bi_0" queueing_time="29.00" queueing_length="21.00" queueing_length_experimental="21.00"/>
        </lanes>
    </data>
    <data timestep="62.00">
        <lanes>
            <lane id="Ai_1" queueing_time="47.00" queueing_length="36.01" queueing_length_experimental="36.01"/>
            <lane id="Bi_0" queueing_time="30.00" queueing_length="21.00" queueing_length_experimental="21.00"/>
        </lanes>
    </data>
    <data timestep="63.00">
        <lanes>
            <lane id="Ai_1" queueing_time="48.00" queueing_length="36.01" queueing_length_experimental="36.01"/>
            <lane id="Bi_0" queueing_time="31.00" queueing_length="21.00" queueing_length_experimental="21.00"/>
        </lanes>
    </data>
    <data timestep="64.00">
        <lanes>
            <lane id="Ai_1" queueing_time="49.00" queueing_length="36.01" queueing_length_experimental="36.01"/>
            <lane id="Bi_0" queueing_time="32.00" queueing_length="28.51" queueing_length_experimental="28.51"/>
        </lanes>
    </data>
    <data timestep="65.00">
        <lanes>
            <lane id="Ai_1" queueing_time="50.00" queueing_length="36.01" queueing_length_experimental="36.01"/>
            <lane id="Bi_0" queueing_time="33.00" queueing_length="28.51" queueing_length_experimental="28.51"/>
        </lanes>
    </data>
    <data timestep="66.00">
        <lanes>
            <lane id="Ai_1" queueing_time="51.00" queueing_length="36.01" queueing_length_experimental="36.01"/>
            <lane id="Bi_0" queueing_time="34.00" queueing_length="28.50" queueing_length_experimental="28.50"/>
        </lanes>
    </data>
    <data timestep="67.00">
        <lanes>
            <lane id="Ai_1" queueing_time="52.00" queueing_length="36.01" queueing_length_experimental="36.01"/>
            <lane id="Bi_0" queueing_time="35.00" queueing_length="28.50" queueing_length_experimental="28.50"/>
        </lanes>
    </data>
    <data timestep="68.00">
        <lanes>
            <lane id="Ai_1" queueing_time="53.00" queueing_length="36.01" queueing_length_experimental="36.01"/>
            <lane id="Bi_0" queueing_time="36.00" queueing_length="28.50" queueing_length_experimental="28.50"/>
        </lanes>
    </data>
    <data timestep="69.00">
        <lanes>
            <lane id="Ai_1" queueing_time="54.00" queueing_length="36.01" queueing_length_experimental="36.01"/>
            <lane id="Bi_0" queueing_time="26.00" queueing_length="28.50" queueing_length_experimental="28.50"/>
        </lanes>
    </data>
    <data timestep="70.00">
        <lanes>
            <lane id="Ai_1" queueing_time="55.00" queueing_length="36.01" queueing_length_experimental="43.57"/>
            <lane id="Bi_0" queueing_time="18.00" queueing_length="28.50" queueing_length_experimental="28.50"/>
        </lanes>
    </data>
    <data timestep="71.00">
        <lanes>
            <lane id="Ai_1" queueing_time="44.00" queueing_length="43.53" queueing_length_experimental="43.53"/>
            <lane id="Bi_0" queueing_time="8.00" queueing_length="28.50" queueing_length_experimental="28.50"/>
        </lanes>
    </data>
    <data timestep="72.00">
        <lanes>
            <lane id="Ai_1" queueing_time="33.00" queueing_length="43.52" queueing_length_experimental="43.52"/>
            <lane id="Bi_0" queueing_time="0.00" queueing_length="0.00" queueing_length_experimental="27.75"/>
            <lane id="Ci_0" queueing_time="0.00" queueing_length="0.00" queueing_length_experimental="6.01"/>
        </lanes>
    </data>
    <data timestep="73.00">
        <lanes>
            <lane id="Ai_1" queueing_time="23.00" queueing_length="43.51" queueing_length_experimental="43.51"/>
            <lane id="Ci_0" queueing_time="1.00" queueing_length="6.00" queueing_length_experimental="6.00"/>
        </lanes>
    </data>
    <data timestep="74.00">
        <lanes>
            <lane id="Ai_1" queueing_time="14.00" queueing_length="43.51" queueing_length_experimental="43.51"/>
            <lane id="Ci_0" queueing_time="2.00" queueing_length="6.00" queueing_length_experimental="6.00"/>
        </lanes>
    </data>
    <data timestep="75.00">
        <lanes>
            <lane id="Ai_1" queueing_time="5.00" queueing_length="43.51" queueing_length_experimental="43.51"/>
            <lane id="Ci_0" queueing_time="3.00" queueing_length="6.00" queueing_length_experimental="6.00"/>
        </lanes>
    </data>
    <data timestep="76.00">
        <lanes>
            <lane id="Ai_1" queueing_time="0.00" queueing_length="0.00" queueing_length_experimental="42.61"/>
            <lane id="Ci_0" queueing_time="4.00" queueing_length="6.00" queueing_length_experimental="6.00"/>
        </lanes>
    </data>
    <data timestep="77.00">
        <lanes>
            <lane id="Ci_0" queueing_time="5.00" queueing_length="6.00" queueing_length_experimental="6.00"/>
        </lanes>
    </data>
    <data timestep="78.00">
        <lanes>
            <lane id="Ci_0" queueing_time="6.00" queueing_length="6.00" queueing_length_experimental="6.00"/>
        </lanes>
    </data>
    <data timestep="79.00">
        <lanes>
            <lane id="Ci_0" queueing_time="7.00" queueing_length="6.00" queueing_length_experimental="14.50"/>
        </lanes>
    </data>
    <data timestep="80.00">
        <lanes>
            <lane id="Ci_0" queueing_time="8.00" queueing_length="6.00" queueing_length_experimental="13.50"/>
        </lanes>
    </data>
    <data timestep="81.00">
        <lanes>
            <lane id="Ci_0" queueing_time="9.00" queueing_length="13.50" queueing_length_experimental="13.50"/>
        </lanes>
    </data>
    <data timestep="82.00">
        <lanes>
            <lane id="Ci_0" queueing_time="10.00" queueing_length="13.50" queueing_length_experimental="13.50"/>
        </lanes>
    </data>
    <data timestep="83.00">
        <lanes>
            <lane id="Bi_1" queueing_time="0.00" queueing_length="0.00" queueing_length_experimental="6.01"/>
            <lane id="Ci_0" queueing_time="11.00" queueing_length="13.50" queueing_length_experimental="13.50"/>
        </lanes>
    </data>
    <data timestep="84.00">
        <lanes>
            <lane id="Bi_1" queueing_time="1.00" queueing_length="6.00" queueing_length_experimental="6.00"/>
            <lane id="Ci_0" queueing_time="12.00" queueing_length="13.50" queueing_length_experimental="13.50"/>
        </lanes>
    </data>
    <data timestep="85.00">
        <lanes>
            <lane id="Bi_1" queueing_time="2.00" queueing_length="6.00" queueing_length_experimental="6.00"/>
            <lane id="Ci_0" queueing_time="13.00" queueing_length="13.50" queueing_length_experimental="13.50"/>
        </lanes>
    </data>
    <data timestep="86.00">
        <lanes>
            <lane id="Bi_1" queueing_time="3.00" queueing_length="6.00" queueing_length_experimental="6.00"/>
            <lane id="Ci_0" queueing_time="14.00" queueing_length="13.50" queueing_length_experimental="13.50"/>
        </lanes>
    </data>
    <data timestep="87.00">
        <lanes>
            <lane id="Bi_1" queueing_time="4.00" queueing_length="6.00" queueing_length_experimental="6.00"/>
            <lane id="Ci_0" queueing_time="15.00" queueing_length="21.00" queueing_length_experimental="21.00"/>
        </lanes>
    </data>
    <data timestep="88.00">
        <lanes>
            <lane id="Bi_1" queueing_time="5.00" queueing_length="6.00" queueing_length_experimental="6.00"/>
            <lane id="Ci_0" queueing_time="16.00" queueing_length="21.00" queueing_length_experimental="21.00"/>
        </lanes>
    </data>
    <data timestep="89.00">
        <lanes>
            <lane id="Bi_1" queueing_time="6.00" queueing_length="6.00" queueing_length_experimental="6.00"/>
            <lane id="Ci_0" queueing_time="17.00" queueing_length="21.00" queueing_length_experimental="21.00"/>
        </lanes>
    </data>
    <data timestep="90.00">
        <lanes>
            <lane id="Bi_1" queueing_time="7.00" queueing_length="6.00" queueing_length_experimental="6.00"/>
            <lane id="Ci_0" queueing_time="18.00" queueing_length="28.51" queueing_length_experimental="28.51"/>
        </lanes>
    </data>
    <data timestep="91.00">
        <lanes>
            <lane id="Bi_1" queueing_time="8.00" queueing_length="6.00" queueing_length_experimental="6.00"/>
            <lane id="Ci_0" queueing_time="19.00" queueing_length="28.51" queueing_length_experimental="28.51"/>
        </lanes>
    </data>
    <data timestep="92.00">
        <lanes>
            <lane id="Bi_1" queueing_time="9.00" queueing_length="6.00" queueing_length_experimental="6.00"/>
            <lane id="Ci_0" queueing_time="20.00" queueing_length="28.50" queueing_length_experimental="28.50"/>
        </lanes>
    </data>
    <data timestep="93.00">
        <lanes>
            <lane id="Bi_1" queueing_time="10.00" queueing_length="6.00" queueing_length_experimental="13.81"/>
            <lane id="Ci_0" queueing_time="21.00" queueing_length="28.50" queueing_length_experimental="36.12"/>
        </lanes>
    </data>
    <data timestep="94.00">
        <lanes>
            <lane id="Bi_1" queueing_time="11.00" queueing_length="6.00" queueing_length_experimental="13.58"/>
            <lane id="Ci_0" queueing_time="22.00" queueing_length="36.05" queueing_length_experimental="36.05"/>
        </lanes>
    </data>
    <data timestep="95.00">
        <lanes>
            <lane id="Bi_1" queueing_time="12.00" queueing_length="13.51" queueing_length_experimental="13.51"/>
            <lane id="Ci_0" queueing_time="23.00" queueing_length="36.01" queueing_length_experimental="36.01"/>
        </lanes>
    </data>
</queue-export>
