<?xml version="1.0" encoding="UTF-8"?>

<!-- generated on 2025-05-20 17:24:41 by Eclipse SUMO sumo Version 1.22.0
<sumoConfiguration xmlns:xsi="http://www.w3.org/2001/XMLSchema-instance" xsi:noNamespaceSchemaLocation="http://sumo.dlr.de/xsd/sumoConfiguration.xsd">

    <input>
        <net-file value="BuszkaMain.net.xml"/>
        <route-files value="routes8_9.rou.xml"/>
    </input>

    <output>
        <fcd-output value="fcd_rano.xml"/>
        <queue-output value="queues_rano.xml"/>
        <summary-output value="summary_rano.xml"/>
        <tripinfo-output value="tripinfo_rano.xml"/>
    </output>

    <time>
        <begin value="0"/>
        <end value="3600"/>
    </time>

    <processing>
        <ignore-route-errors value="true"/>
        <tls.actuated.jam-threshold value="30"/>
    </processing>

    <routing>
        <device.rerouting.adaptation-steps value="18"/>
        <device.rerouting.adaptation-interval value="10"/>
    </routing>

    <report>
        <verbose value="true"/>
        <duration-log.statistics value="true"/>
        <no-step-log value="true"/>
    </report>

    <gui_only>
        <gui-settings-file value="../2025-04-22-13-34-51/osm.view.xml"/>
    </gui_only>

</sumoConfiguration>
-->

<tripinfos xmlns:xsi="http://www.w3.org/2001/XMLSchema-instance" xsi:noNamespaceSchemaLocation="http://sumo.dlr.de/xsd/tripinfo_file.xsd">
    <tripinfo id="flow_Bi_1.0" depart="0.00" departLane="Bi_1" departPos="5.10" departSpeed="0.00" departDelay="0.00" arrival="13.00" arrivalLane="Do_0" arrivalPos="70.61" arrivalSpeed="14.04" duration="13.00" routeLength="132.63" waitingTime="0.00" waitingCount="0" stopTime="0.00" timeLoss="3.01" rerouteNo="0" devices="tripinfo_flow_Bi_1.0 routing_flow_Bi_1.0 fcd_flow_Bi_1.0" vType="type1" speedFactor="1.03" vaporized=""/>
    <tripinfo id="flow_Bi_0.0" depart="0.00" departLane="Bi_0" departPos="5.10" departSpeed="0.00" departDelay="0.00" arrival="18.00" arrivalLane="Ao_0" arrivalPos="139.22" arrivalSpeed="15.03" duration="18.00" routeLength="192.83" waitingTime="0.00" waitingCount="0" stopTime="0.00" timeLoss="4.66" rerouteNo="0" devices="tripinfo_flow_Bi_0.0 routing_flow_Bi_0.0 fcd_flow_Bi_0.0" vType="type1" speedFactor="1.08" vaporized=""/>
    <tripinfo id="flow_Ai_0.0" depart="0.00" departLane="Ai_0" departPos="5.10" departSpeed="0.00" departDelay="0.00" arrival="23.00" arrivalLane="Do_0" arrivalPos="70.61" arrivalSpeed="14.37" duration="23.00" routeLength="216.98" waitingTime="0.00" waitingCount="0" stopTime="0.00" timeLoss="7.08" rerouteNo="0" devices="tripinfo_flow_Ai_0.0 routing_flow_Ai_0.0 fcd_flow_Ai_0.0" vType="type1" speedFactor="1.06" vaporized=""/>
    <tripinfo id="flow_Di_0.0" depart="0.00" departLane="Di_0" departPos="5.10" departSpeed="0.00" departDelay="0.00" arrival="27.00" arrivalLane="Co_0" arrivalPos="172.93" arrivalSpeed="11.51" duration="27.00" routeLength="251.17" waitingTime="0.00" waitingCount="0" stopTime="0.00" timeLoss="4.31" rerouteNo="0" devices="tripinfo_flow_Di_0.0 routing_flow_Di_0.0 fcd_flow_Di_0.0" vType="type1" speedFactor="0.86" vaporized=""/>
    <tripinfo id="flow_Di_2.0" depart="6.00" departLane="Di_0" departPos="5.10" departSpeed="0.00" departDelay="6.00" arrival="29.00" arrivalLane="Ao_0" arrivalPos="139.22" arrivalSpeed="13.73" duration="23.00" routeLength="223.76" waitingTime="0.00" waitingCount="0" stopTime="0.00" timeLoss="5.90" rerouteNo="0" devices="tripinfo_flow_Di_2.0 routing_flow_Di_2.0 fcd_flow_Di_2.0" vType="type1" speedFactor="1.03" vaporized=""/>
    <tripinfo id="flow_Bi_2.0" depart="3.00" departLane="Bi_1" departPos="5.10" departSpeed="0.00" departDelay="3.00" arrival="30.00" arrivalLane="Co_0" arrivalPos="172.93" arrivalSpeed="11.30" duration="27.00" routeLength="231.13" waitingTime="0.00" waitingCount="0" stopTime="0.00" timeLoss="5.33" rerouteNo="0" devices="tripinfo_flow_Bi_2.0 routing_flow_Bi_2.0 fcd_flow_Bi_2.0" vType="type1" speedFactor="0.83" vaporized=""/>
    <tripinfo id="flow_Di_1.0" depart="3.00" departLane="Di_0" departPos="5.10" departSpeed="0.00" departDelay="3.00" arrival="37.00" arrivalLane="Bo_0" arrivalPos="292.70" arrivalSpeed="14.80" duration="34.00" routeLength="376.45" waitingTime="0.00" waitingCount="0" stopTime="0.00" timeLoss="8.33" rerouteNo="0" devices="tripinfo_flow_Di_1.0 routing_flow_Di_1.0 fcd_flow_Di_1.0" vType="type1" speedFactor="1.09" vaporized=""/>
    <tripinfo id="flow_Ai_1.0" depart="3.00" departLane="Ai_0" departPos="5.10" departSpeed="0.00" departDelay="3.00" arrival="46.00" arrivalLane="Co_0" arrivalPos="172.93" arrivalSpeed="12.96" duration="43.00" routeLength="326.33" waitingTime="7.00" waitingCount="1" stopTime="0.00" timeLoss="17.91" rerouteNo="0" devices="tripinfo_flow_Ai_1.0 routing_flow_Ai_1.0 fcd_flow_Ai_1.0" vType="type1" speedFactor="0.94" vaporized=""/>
    <tripinfo id="flow_Ci_1.0" depart="3.00" departLane="Ci_0" departPos="5.10" departSpeed="0.00" departDelay="3.00" arrival="46.00" arrivalLane="Ao_0" arrivalPos="139.22" arrivalSpeed="11.46" duration="43.00" routeLength="324.61" waitingTime="8.00" waitingCount="1" stopTime="0.00" timeLoss="16.46" rerouteNo="0" devices="tripinfo_flow_Ci_1.0 routing_flow_Ci_1.0 fcd_flow_Ci_1.0" vType="type1" speedFactor="0.89" vaporized=""/>
    <tripinfo id="flow_Ci_2.0" depart="6.00" departLane="Ci_0" departPos="5.10" departSpeed="0.00" departDelay="6.00" arrival="47.00" arrivalLane="Do_0" arrivalPos="70.61" arrivalSpeed="12.60" duration="41.00" routeLength="256.01" waitingTime="5.00" waitingCount="1" stopTime="0.00" timeLoss="19.96" rerouteNo="0" devices="tripinfo_flow_Ci_2.0 routing_flow_Ci_2.0 fcd_flow_Ci_2.0" vType="type1" speedFactor="0.94" vaporized=""/>
    <tripinfo id="flow_Ai_1.1" depart="9.00" departLane="Ai_0" departPos="5.10" departSpeed="0.00" departDelay="0.09" arrival="48.00" arrivalLane="Co_0" arrivalPos="172.93" arrivalSpeed="15.40" duration="39.00" routeLength="326.33" waitingTime="4.00" waitingCount="1" stopTime="0.00" timeLoss="17.56" rerouteNo="0" devices="tripinfo_flow_Ai_1.1 routing_flow_Ai_1.1 fcd_flow_Ai_1.1" vType="type1" speedFactor="1.12" vaporized=""/>
    <tripinfo id="flow_Ai_1.2" depart="18.00" departLane="Ai_0" departPos="5.10" departSpeed="0.00" departDelay="0.18" arrival="52.00" arrivalLane="Co_0" arrivalPos="172.93" arrivalSpeed="11.83" duration="34.00" routeLength="326.33" waitingTime="0.00" waitingCount="0" stopTime="0.00" timeLoss="6.37" rerouteNo="0" devices="tripinfo_flow_Ai_1.2 routing_flow_Ai_1.2 fcd_flow_Ai_1.2" vType="type1" speedFactor="0.88" vaporized=""/>
    <tripinfo id="flow_Ci_1.1" depart="9.00" departLane="Ci_0" departPos="5.10" departSpeed="0.00" departDelay="1.26" arrival="53.00" arrivalLane="Ao_0" arrivalPos="139.22" arrivalSpeed="13.43" duration="44.00" routeLength="324.61" waitingTime="5.00" waitingCount="1" stopTime="0.00" timeLoss="21.04" rerouteNo="0" devices="tripinfo_flow_Ci_1.1 routing_flow_Ci_1.1 fcd_flow_Ci_1.1" vType="type1" speedFactor="1.05" vaporized=""/>
    <tripinfo id="flow_Ci_0.0" depart="0.00" departLane="Ci_0" departPos="5.10" departSpeed="0.00" departDelay="0.00" arrival="54.00" arrivalLane="Bo_0" arrivalPos="292.70" arrivalSpeed="13.49" duration="54.00" routeLength="469.59" waitingTime="9.00" waitingCount="1" stopTime="0.00" timeLoss="20.35" rerouteNo="0" devices="tripinfo_flow_Ci_0.0 routing_flow_Ci_0.0 fcd_flow_Ci_0.0" vType="type1" speedFactor="1.05" vaporized=""/>
    <tripinfo id="flow_Ci_1.2" depart="16.00" departLane="Ci_0" departPos="5.10" departSpeed="0.00" departDelay="0.52" arrival="56.00" arrivalLane="Ao_0" arrivalPos="139.22" arrivalSpeed="11.60" duration="40.00" routeLength="324.61" waitingTime="0.00" waitingCount="0" stopTime="0.00" timeLoss="14.59" rerouteNo="0" devices="tripinfo_flow_Ci_1.2 routing_flow_Ci_1.2 fcd_flow_Ci_1.2" vType="type1" speedFactor="0.93" vaporized=""/>
    <tripinfo id="flow_Ai_1.3" depart="27.00" departLane="Ai_0" departPos="5.10" departSpeed="0.00" departDelay="0.27" arrival="56.00" arrivalLane="Co_0" arrivalPos="172.93" arrivalSpeed="13.08" duration="29.00" routeLength="326.33" waitingTime="0.00" waitingCount="0" stopTime="0.00" timeLoss="5.32" rerouteNo="0" devices="tripinfo_flow_Ai_1.3 routing_flow_Ai_1.3 fcd_flow_Ai_1.3" vType="type1" speedFactor="1.02" vaporized=""/>
    <tripinfo id="flow_Ci_1.3" depart="24.00" departLane="Ci_0" departPos="5.10" departSpeed="0.00" departDelay="0.77" arrival="58.00" arrivalLane="Ao_0" arrivalPos="139.22" arrivalSpeed="15.74" duration="34.00" routeLength="324.61" waitingTime="0.00" waitingCount="0" stopTime="0.00" timeLoss="13.09" rerouteNo="0" devices="tripinfo_flow_Ci_1.3 routing_flow_Ci_1.3 fcd_flow_Ci_1.3" vType="type1" speedFactor="1.16" vaporized=""/>
    <tripinfo id="flow_Ci_1.4" depart="31.00" departLane="Ci_0" departPos="5.10" departSpeed="0.00" departDelay="0.03" arrival="60.00" arrivalLane="Ao_0" arrivalPos="139.22" arrivalSpeed="12.91" duration="29.00" routeLength="324.61" waitingTime="0.00" waitingCount="0" stopTime="0.00" timeLoss="4.21" rerouteNo="0" devices="tripinfo_flow_Ci_1.4 routing_flow_Ci_1.4 fcd_flow_Ci_1.4" vType="type1" speedFactor="0.97" vaporized=""/>
    <tripinfo id="flow_Ai_1.4" depart="36.00" departLane="Ai_0" departPos="5.10" departSpeed="0.00" departDelay="0.36" arrival="67.00" arrivalLane="Co_0" arrivalPos="172.93" arrivalSpeed="11.83" duration="31.00" routeLength="326.33" waitingTime="0.00" waitingCount="0" stopTime="0.00" timeLoss="3.90" rerouteNo="0" devices="tripinfo_flow_Ai_1.4 routing_flow_Ai_1.4 fcd_flow_Ai_1.4" vType="type1" speedFactor="0.89" vaporized=""/>
    <tripinfo id="flow_Ci_1.5" depart="39.00" departLane="Ci_0" departPos="5.10" departSpeed="0.00" departDelay="0.29" arrival="69.00" arrivalLane="Ao_0" arrivalPos="139.22" arrivalSpeed="12.69" duration="30.00" routeLength="324.61" waitingTime="0.00" waitingCount="0" stopTime="0.00" timeLoss="3.82" rerouteNo="0" devices="tripinfo_flow_Ci_1.5 routing_flow_Ci_1.5 fcd_flow_Ci_1.5" vType="type1" speedFactor="0.92" vaporized=""/>
    <tripinfo id="flow_Ci_1.6" depart="47.00" departLane="Ci_0" departPos="5.10" departSpeed="0.00" departDelay="0.55" arrival="72.00" arrivalLane="Ao_0" arrivalPos="139.22" arrivalSpeed="15.63" duration="25.00" routeLength="324.61" waitingTime="0.00" waitingCount="0" stopTime="0.00" timeLoss="4.29" rerouteNo="0" devices="tripinfo_flow_Ci_1.6 routing_flow_Ci_1.6 fcd_flow_Ci_1.6" vType="type1" speedFactor="1.13" vaporized=""/>
    <tripinfo id="flow_Ai_1.5" depart="45.00" departLane="Ai_0" departPos="5.10" departSpeed="0.00" departDelay="0.45" arrival="75.00" arrivalLane="Co_0" arrivalPos="172.93" arrivalSpeed="12.65" duration="30.00" routeLength="326.33" waitingTime="0.00" waitingCount="0" stopTime="0.00" timeLoss="4.38" rerouteNo="0" devices="tripinfo_flow_Ai_1.5 routing_flow_Ai_1.5 fcd_flow_Ai_1.5" vType="type1" speedFactor="0.95" vaporized=""/>
    <tripinfo id="flow_Ai_1.6" depart="54.00" departLane="Ai_0" departPos="5.10" departSpeed="0.00" departDelay="0.53" arrival="79.00" arrivalLane="Co_0" arrivalPos="172.93" arrivalSpeed="16.24" duration="25.00" routeLength="326.33" waitingTime="0.00" waitingCount="0" stopTime="0.00" timeLoss="4.42" rerouteNo="0" devices="tripinfo_flow_Ai_1.6 routing_flow_Ai_1.6 fcd_flow_Ai_1.6" vType="type1" speedFactor="1.18" vaporized=""/>
    <tripinfo id="flow_Bi_0.1" depart="19.00" departLane="Bi_0" departPos="5.10" departSpeed="0.00" departDelay="0.44" arrival="83.00" arrivalLane="Ao_0" arrivalPos="139.22" arrivalSpeed="12.44" duration="64.00" routeLength="192.83" waitingTime="41.00" waitingCount="1" stopTime="0.00" timeLoss="48.30" rerouteNo="0" devices="tripinfo_flow_Bi_0.1 routing_flow_Bi_0.1 fcd_flow_Bi_0.1" vType="type1" speedFactor="0.94" vaporized=""/>
    <tripinfo id="flow_Bi_0.2" depart="38.00" departLane="Bi_0" departPos="5.10" departSpeed="0.00" departDelay="0.89" arrival="87.00" arrivalLane="Ao_0" arrivalPos="139.22" arrivalSpeed="10.80" duration="49.00" routeLength="192.83" waitingTime="23.00" waitingCount="1" stopTime="0.00" timeLoss="31.22" rerouteNo="0" devices="tripinfo_flow_Bi_0.2 routing_flow_Bi_0.2 fcd_flow_Bi_0.2" vType="type1" speedFactor="0.83" vaporized=""/>
    <tripinfo id="flow_Bi_0.3" depart="56.00" departLane="Bi_0" departPos="5.10" departSpeed="0.00" departDelay="0.33" arrival="89.00" arrivalLane="Ao_0" arrivalPos="139.22" arrivalSpeed="12.77" duration="33.00" routeLength="192.83" waitingTime="7.00" waitingCount="1" stopTime="0.00" timeLoss="18.39" rerouteNo="0" devices="tripinfo_flow_Bi_0.3 routing_flow_Bi_0.3 fcd_flow_Bi_0.3" vType="type1" speedFactor="1.01" vaporized=""/>
    <tripinfo id="flow_Ai_1.7" depart="63.00" departLane="Ai_0" departPos="5.10" departSpeed="0.00" departDelay="0.62" arrival="91.00" arrivalLane="Co_0" arrivalPos="172.93" arrivalSpeed="13.83" duration="28.00" routeLength="326.33" waitingTime="0.00" waitingCount="0" stopTime="0.00" timeLoss="4.36" rerouteNo="0" devices="tripinfo_flow_Ai_1.7 routing_flow_Ai_1.7 fcd_flow_Ai_1.7" vType="type1" speedFactor="1.02" vaporized=""/>
    <tripinfo id="flow_AiL_2.0" depart="0.00" departLane="Ai_1" departPos="5.10" departSpeed="0.00" departDelay="0.00" arrival="96.00" arrivalLane="Bo_0" arrivalPos="292.70" arrivalSpeed="13.00" duration="96.00" routeLength="445.37" waitingTime="56.00" waitingCount="1" stopTime="0.00" timeLoss="63.58" rerouteNo="0" devices="tripinfo_flow_AiL_2.0 routing_flow_AiL_2.0 fcd_flow_AiL_2.0" vType="type1" speedFactor="1.01" vaporized=""/>
    <tripinfo id="flow_Bi_0.4" depart="75.00" departLane="Bi_0" departPos="5.10" departSpeed="0.00" departDelay="0.77" arrival="97.00" arrivalLane="Ao_0" arrivalPos="139.22" arrivalSpeed="12.26" duration="22.00" routeLength="192.83" waitingTime="0.00" waitingCount="0" stopTime="0.00" timeLoss="5.67" rerouteNo="0" devices="tripinfo_flow_Bi_0.4 routing_flow_Bi_0.4 fcd_flow_Bi_0.4" vType="type1" speedFactor="0.90" vaporized=""/>
    <tripinfo id="flow_Ai_1.8" depart="72.00" departLane="Ai_0" departPos="5.10" departSpeed="0.00" departDelay="0.71" arrival="98.00" arrivalLane="Co_0" arrivalPos="172.93" arrivalSpeed="14.12" duration="26.00" routeLength="326.33" waitingTime="0.00" waitingCount="0" stopTime="0.00" timeLoss="4.66" rerouteNo="0" devices="tripinfo_flow_Ai_1.8 routing_flow_Ai_1.8 fcd_flow_Ai_1.8" vType="type1" speedFactor="1.10" vaporized=""/>
    <tripinfo id="flow_AiL_2.1" depart="10.00" departLane="Ai_1" departPos="5.10" departSpeed="0.00" departDelay="0.40" arrival="99.00" arrivalLane="Bo_0" arrivalPos="292.70" arrivalSpeed="13.40" duration="89.00" routeLength="445.37" waitingTime="46.00" waitingCount="1" stopTime="0.00" timeLoss="55.77" rerouteNo="0" devices="tripinfo_flow_AiL_2.1 routing_flow_AiL_2.1 fcd_flow_AiL_2.1" vType="type1" speedFactor="0.99" vaporized=""/>
    <tripinfo id="flow_AiL_2.2" depart="20.00" departLane="Ai_1" departPos="5.10" departSpeed="0.00" departDelay="0.80" arrival="102.00" arrivalLane="Bo_0" arrivalPos="292.70" arrivalSpeed="12.62" duration="82.00" routeLength="445.37" waitingTime="36.00" waitingCount="1" stopTime="0.00" timeLoss="47.05" rerouteNo="0" devices="tripinfo_flow_AiL_2.2 routing_flow_AiL_2.2 fcd_flow_AiL_2.2" vType="type1" speedFactor="0.94" vaporized=""/>
    <tripinfo id="flow_AiL_2.3" depart="29.00" departLane="Ai_1" departPos="5.10" departSpeed="0.00" departDelay="0.20" arrival="104.00" arrivalLane="Bo_0" arrivalPos="292.70" arrivalSpeed="13.45" duration="75.00" routeLength="445.37" waitingTime="30.00" waitingCount="1" stopTime="0.00" timeLoss="42.17" rerouteNo="0" devices="tripinfo_flow_AiL_2.3 routing_flow_AiL_2.3 fcd_flow_AiL_2.3" vType="type1" speedFactor="1.01" vaporized=""/>
    <tripinfo id="flow_Ai_1.9" depart="81.00" departLane="Ai_0" departPos="5.10" departSpeed="0.00" departDelay="0.80" arrival="107.00" arrivalLane="Co_0" arrivalPos="172.93" arrivalSpeed="14.96" duration="26.00" routeLength="326.33" waitingTime="0.00" waitingCount="0" stopTime="0.00" timeLoss="4.18" rerouteNo="0" devices="tripinfo_flow_Ai_1.9 routing_flow_Ai_1.9 fcd_flow_Ai_1.9" vType="type1" speedFactor="1.09" vaporized=""/>
    <tripinfo id="flow_AiL_2.4" depart="39.00" departLane="Ai_1" departPos="5.10" departSpeed="0.00" departDelay="0.60" arrival="109.00" arrivalLane="Bo_0" arrivalPos="292.70" arrivalSpeed="11.46" duration="70.00" routeLength="445.37" waitingTime="19.00" waitingCount="1" stopTime="0.00" timeLoss="32.27" rerouteNo="0" devices="tripinfo_flow_AiL_2.4 routing_flow_AiL_2.4 fcd_flow_AiL_2.4" vType="type1" speedFactor="0.87" vaporized=""/>
    <tripinfo id="flow_AiL_2.5" depart="48.00" departLane="Ai_1" departPos="5.10" departSpeed="0.00" departDelay="0.00" arrival="111.00" arrivalLane="Bo_0" arrivalPos="292.70" arrivalSpeed="12.82" duration="63.00" routeLength="445.37" waitingTime="13.00" waitingCount="1" stopTime="0.00" timeLoss="27.22" rerouteNo="0" devices="tripinfo_flow_AiL_2.5 routing_flow_AiL_2.5 fcd_flow_AiL_2.5" vType="type1" speedFactor="0.93" vaporized=""/>
    <tripinfo id="flow_AiL_2.6" depart="58.00" departLane="Ai_1" departPos="5.10" departSpeed="0.00" departDelay="0.40" arrival="112.00" arrivalLane="Bo_0" arrivalPos="292.70" arrivalSpeed="13.22" duration="54.00" routeLength="445.37" waitingTime="6.00" waitingCount="1" stopTime="0.00" timeLoss="25.91" rerouteNo="0" devices="tripinfo_flow_AiL_2.6 routing_flow_AiL_2.6 fcd_flow_AiL_2.6" vType="type1" speedFactor="1.17" vaporized=""/>
    <tripinfo id="flow_Bi_0.5" depart="93.00" departLane="Bi_0" departPos="5.10" departSpeed="0.00" departDelay="0.22" arrival="113.00" arrivalLane="Ao_0" arrivalPos="139.22" arrivalSpeed="13.49" duration="20.00" routeLength="192.83" waitingTime="0.00" waitingCount="0" stopTime="0.00" timeLoss="5.11" rerouteNo="0" devices="tripinfo_flow_Bi_0.5 routing_flow_Bi_0.5 fcd_flow_Bi_0.5" vType="type1" speedFactor="1.00" vaporized=""/>
    <tripinfo id="flow_AiL_2.7" depart="68.00" departLane="Ai_1" departPos="5.10" departSpeed="0.00" departDelay="0.80" arrival="114.00" arrivalLane="Bo_0" arrivalPos="292.70" arrivalSpeed="12.62" duration="46.00" routeLength="445.37" waitingTime="0.00" waitingCount="0" stopTime="0.00" timeLoss="12.28" rerouteNo="0" devices="tripinfo_flow_AiL_2.7 routing_flow_AiL_2.7 fcd_flow_AiL_2.7" vType="type1" speedFactor="0.97" vaporized=""/>
    <tripinfo id="flow_AiL_2.8" depart="77.00" departLane="Ai_1" departPos="5.10" departSpeed="0.00" departDelay="0.20" arrival="116.00" arrivalLane="Bo_0" arrivalPos="292.70" arrivalSpeed="13.45" duration="39.00" routeLength="445.37" waitingTime="0.00" waitingCount="0" stopTime="0.00" timeLoss="6.75" rerouteNo="0" devices="tripinfo_flow_AiL_2.8 routing_flow_AiL_2.8 fcd_flow_AiL_2.8" vType="type1" speedFactor="1.03" vaporized=""/>
    <tripinfo id="flow_Bi_0.6" depart="112.00" departLane="Bi_0" departPos="5.10" departSpeed="0.00" departDelay="0.66" arrival="132.00" arrivalLane="Ao_0" arrivalPos="139.22" arrivalSpeed="13.17" duration="20.00" routeLength="192.83" waitingTime="0.00" waitingCount="0" stopTime="0.00" timeLoss="5.05" rerouteNo="0" devices="tripinfo_flow_Bi_0.6 routing_flow_Bi_0.6 fcd_flow_Bi_0.6" vType="type1" speedFactor="1.00" vaporized=""/>
    <tripinfo id="flow_Bi_2.1" depart="113.00" departLane="Bi_1" departPos="5.10" departSpeed="0.00" departDelay="0.50" arrival="137.00" arrivalLane="Co_0" arrivalPos="172.93" arrivalSpeed="11.52" duration="24.00" routeLength="231.13" waitingTime="0.00" waitingCount="0" stopTime="0.00" timeLoss="4.43" rerouteNo="0" devices="tripinfo_flow_Bi_2.1 routing_flow_Bi_2.1 fcd_flow_Bi_2.1" vType="type1" speedFactor="0.90" vaporized=""/>
    <tripinfo id="flow_Ci_1.7" depart="55.00" departLane="Ci_0" departPos="5.10" departSpeed="0.00" departDelay="0.81" arrival="141.00" arrivalLane="Ao_0" arrivalPos="139.22" arrivalSpeed="14.92" duration="86.00" routeLength="324.61" waitingTime="54.00" waitingCount="1" stopTime="0.00" timeLoss="65.56" rerouteNo="0" devices="tripinfo_flow_Ci_1.7 routing_flow_Ci_1.7 fcd_flow_Ci_1.7" vType="type1" speedFactor="1.15" vaporized=""/>
    <tripinfo id="flow_Ai_1.10" depart="90.00" departLane="Ai_0" departPos="5.10" departSpeed="0.00" departDelay="0.89" arrival="144.00" arrivalLane="Co_0" arrivalPos="172.93" arrivalSpeed="14.88" duration="54.00" routeLength="326.33" waitingTime="22.00" waitingCount="1" stopTime="0.00" timeLoss="32.16" rerouteNo="0" devices="tripinfo_flow_Ai_1.10 routing_flow_Ai_1.10 fcd_flow_Ai_1.10" vType="type1" speedFactor="1.09" vaporized=""/>
    <tripinfo id="flow_Ci_1.8" depart="62.00" departLane="Ci_0" departPos="5.10" departSpeed="0.00" departDelay="0.06" arrival="145.00" arrivalLane="Ao_0" arrivalPos="139.22" arrivalSpeed="13.56" duration="83.00" routeLength="324.61" waitingTime="49.00" waitingCount="1" stopTime="0.00" timeLoss="58.76" rerouteNo="0" devices="tripinfo_flow_Ci_1.8 routing_flow_Ci_1.8 fcd_flow_Ci_1.8" vType="type1" speedFactor="0.99" vaporized=""/>
    <tripinfo id="flow_Ci_1.9" depart="70.00" departLane="Ci_0" departPos="5.10" departSpeed="0.00" departDelay="0.32" arrival="146.00" arrivalLane="Ao_0" arrivalPos="139.22" arrivalSpeed="14.73" duration="76.00" routeLength="324.61" waitingTime="43.00" waitingCount="1" stopTime="0.00" timeLoss="56.04" rerouteNo="0" devices="tripinfo_flow_Ci_1.9 routing_flow_Ci_1.9 fcd_flow_Ci_1.9" vType="type1" speedFactor="1.18" vaporized=""/>
    <tripinfo id="flow_Ci_1.10" depart="78.00" departLane="Ci_0" departPos="5.10" departSpeed="0.00" departDelay="0.58" arrival="149.00" arrivalLane="Ao_0" arrivalPos="139.22" arrivalSpeed="12.52" duration="71.00" routeLength="324.61" waitingTime="37.00" waitingCount="1" stopTime="0.00" timeLoss="45.95" rerouteNo="0" devices="tripinfo_flow_Ci_1.10 routing_flow_Ci_1.10 fcd_flow_Ci_1.10" vType="type1" speedFactor="0.96" vaporized=""/>
    <tripinfo id="flow_Ai_1.11" depart="99.00" departLane="Ai_0" departPos="5.10" departSpeed="0.00" departDelay="0.98" arrival="149.00" arrivalLane="Co_0" arrivalPos="172.93" arrivalSpeed="10.90" duration="50.00" routeLength="326.33" waitingTime="12.00" waitingCount="1" stopTime="0.00" timeLoss="21.93" rerouteNo="0" devices="tripinfo_flow_Ai_1.11 routing_flow_Ai_1.11 fcd_flow_Ai_1.11" vType="type1" speedFactor="0.85" vaporized=""/>
    <tripinfo id="flow_Ci_1.11" depart="86.00" departLane="Ci_0" departPos="5.10" departSpeed="0.00" departDelay="0.84" arrival="151.00" arrivalLane="Ao_0" arrivalPos="139.22" arrivalSpeed="13.88" duration="65.00" routeLength="324.61" waitingTime="27.00" waitingCount="1" stopTime="0.00" timeLoss="41.63" rerouteNo="0" devices="tripinfo_flow_Ci_1.11 routing_flow_Ci_1.11 fcd_flow_Ci_1.11" vType="type1" speedFactor="1.04" vaporized=""/>
    <tripinfo id="flow_Ai_1.12" depart="107.00" departLane="Ai_0" departPos="5.10" departSpeed="0.00" departDelay="0.07" arrival="151.00" arrivalLane="Co_0" arrivalPos="172.93" arrivalSpeed="14.45" duration="44.00" routeLength="326.33" waitingTime="8.00" waitingCount="1" stopTime="0.00" timeLoss="21.64" rerouteNo="0" devices="tripinfo_flow_Ai_1.12 routing_flow_Ai_1.12 fcd_flow_Ai_1.12" vType="type1" speedFactor="1.10" vaporized=""/>
    <tripinfo id="flow_Ai_1.13" depart="116.00" departLane="Ai_0" departPos="5.10" departSpeed="0.00" departDelay="0.16" arrival="152.00" arrivalLane="Co_0" arrivalPos="172.93" arrivalSpeed="14.59" duration="36.00" routeLength="326.33" waitingTime="1.00" waitingCount="1" stopTime="0.00" timeLoss="15.17" rerouteNo="0" devices="tripinfo_flow_Ai_1.13 routing_flow_Ai_1.13 fcd_flow_Ai_1.13" vType="type1" speedFactor="1.14" vaporized=""/>
    <tripinfo id="flow_Ci_1.12" depart="93.00" departLane="Ci_0" departPos="5.10" departSpeed="0.00" departDelay="0.10" arrival="153.00" arrivalLane="Ao_0" arrivalPos="139.22" arrivalSpeed="11.60" duration="60.00" routeLength="324.61" waitingTime="23.00" waitingCount="1" stopTime="0.00" timeLoss="33.96" rerouteNo="0" devices="tripinfo_flow_Ci_1.12 routing_flow_Ci_1.12 fcd_flow_Ci_1.12" vType="type1" speedFactor="0.90" vaporized=""/>
    <tripinfo id="flow_Ai_1.14" depart="125.00" departLane="Ai_0" departPos="5.10" departSpeed="0.00" departDelay="0.25" arrival="154.00" arrivalLane="Co_0" arrivalPos="172.93" arrivalSpeed="15.51" duration="29.00" routeLength="326.33" waitingTime="0.00" waitingCount="0" stopTime="0.00" timeLoss="7.30" rerouteNo="0" devices="tripinfo_flow_Ai_1.14 routing_flow_Ai_1.14 fcd_flow_Ai_1.14" vType="type1" speedFactor="1.12" vaporized=""/>
    <tripinfo id="flow_Ci_1.13" depart="101.00" departLane="Ci_0" departPos="5.10" departSpeed="0.00" departDelay="0.35" arrival="158.00" arrivalLane="Ao_0" arrivalPos="139.22" arrivalSpeed="15.10" duration="57.00" routeLength="324.61" waitingTime="19.00" waitingCount="1" stopTime="0.00" timeLoss="36.60" rerouteNo="0" devices="tripinfo_flow_Ci_1.13 routing_flow_Ci_1.13 fcd_flow_Ci_1.13" vType="type1" speedFactor="1.17" vaporized=""/>
    <tripinfo id="flow_Ci_1.14" depart="109.00" departLane="Ci_0" departPos="5.10" departSpeed="0.00" departDelay="0.61" arrival="161.00" arrivalLane="Ao_0" arrivalPos="139.22" arrivalSpeed="13.81" duration="52.00" routeLength="324.61" waitingTime="13.00" waitingCount="1" stopTime="0.00" timeLoss="28.38" rerouteNo="0" devices="tripinfo_flow_Ci_1.14 routing_flow_Ci_1.14 fcd_flow_Ci_1.14" vType="type1" speedFactor="1.00" vaporized=""/>
    <tripinfo id="flow_Ci_1.15" depart="117.00" departLane="Ci_0" departPos="5.10" departSpeed="0.00" departDelay="0.87" arrival="163.00" arrivalLane="Ao_0" arrivalPos="139.22" arrivalSpeed="12.42" duration="46.00" routeLength="324.61" waitingTime="8.00" waitingCount="1" stopTime="0.00" timeLoss="21.80" rerouteNo="0" devices="tripinfo_flow_Ci_1.15 routing_flow_Ci_1.15 fcd_flow_Ci_1.15" vType="type1" speedFactor="0.97" vaporized=""/>
    <tripinfo id="flow_Ci_2.1" depart="127.00" departLane="Ci_0" departPos="5.10" departSpeed="0.00" departDelay="2.86" arrival="163.00" arrivalLane="Do_0" arrivalPos="70.61" arrivalSpeed="12.44" duration="36.00" routeLength="256.01" waitingTime="0.00" waitingCount="0" stopTime="0.00" timeLoss="16.19" rerouteNo="0" devices="tripinfo_flow_Ci_2.1 routing_flow_Ci_2.1 fcd_flow_Ci_2.1" vType="type1" speedFactor="0.99" vaporized=""/>
    <tripinfo id="flow_Ai_1.15" depart="134.00" departLane="Ai_0" departPos="5.10" departSpeed="0.00" departDelay="0.34" arrival="164.00" arrivalLane="Co_0" arrivalPos="172.93" arrivalSpeed="11.84" duration="30.00" routeLength="326.33" waitingTime="0.00" waitingCount="0" stopTime="0.00" timeLoss="3.91" rerouteNo="0" devices="tripinfo_flow_Ai_1.15 routing_flow_Ai_1.15 fcd_flow_Ai_1.15" vType="type1" speedFactor="0.91" vaporized=""/>
    <tripinfo id="flow_Ci_1.16" depart="124.00" departLane="Ci_0" departPos="5.10" departSpeed="0.00" departDelay="0.13" arrival="165.00" arrivalLane="Ao_0" arrivalPos="139.22" arrivalSpeed="14.56" duration="41.00" routeLength="324.61" waitingTime="1.00" waitingCount="1" stopTime="0.00" timeLoss="18.88" rerouteNo="0" devices="tripinfo_flow_Ci_1.16 routing_flow_Ci_1.16 fcd_flow_Ci_1.16" vType="type1" speedFactor="1.08" vaporized=""/>
    <tripinfo id="flow_Ci_1.17" depart="132.00" departLane="Ci_0" departPos="5.10" departSpeed="0.00" departDelay="0.39" arrival="170.00" arrivalLane="Ao_0" arrivalPos="139.22" arrivalSpeed="11.11" duration="38.00" routeLength="324.61" waitingTime="0.00" waitingCount="0" stopTime="0.00" timeLoss="11.50" rerouteNo="0" devices="tripinfo_flow_Ci_1.17 routing_flow_Ci_1.17 fcd_flow_Ci_1.17" vType="type1" speedFactor="0.88" vaporized=""/>
    <tripinfo id="flow_Ci_0.1" depart="98.00" departLane="Ci_0" departPos="5.10" departSpeed="0.00" departDelay="0.70" arrival="172.00" arrivalLane="Bo_0" arrivalPos="292.70" arrivalSpeed="11.30" duration="74.00" routeLength="469.59" waitingTime="19.00" waitingCount="1" stopTime="0.00" timeLoss="33.74" rerouteNo="0" devices="tripinfo_flow_Ci_0.1 routing_flow_Ci_0.1 fcd_flow_Ci_0.1" vType="type1" speedFactor="0.85" vaporized=""/>
    <tripinfo id="flow_Ci_1.18" depart="140.00" departLane="Ci_0" departPos="5.10" departSpeed="0.00" departDelay="0.64" arrival="172.00" arrivalLane="Ao_0" arrivalPos="139.22" arrivalSpeed="13.20" duration="32.00" routeLength="324.61" waitingTime="0.00" waitingCount="0" stopTime="0.00" timeLoss="9.11" rerouteNo="0" devices="tripinfo_flow_Ci_1.18 routing_flow_Ci_1.18 fcd_flow_Ci_1.18" vType="type1" speedFactor="1.04" vaporized=""/>
    <tripinfo id="flow_Ai_1.16" depart="143.00" departLane="Ai_0" departPos="5.10" departSpeed="0.00" departDelay="0.42" arrival="173.00" arrivalLane="Co_0" arrivalPos="172.93" arrivalSpeed="13.32" duration="30.00" routeLength="326.33" waitingTime="0.00" waitingCount="0" stopTime="0.00" timeLoss="6.93" rerouteNo="0" devices="tripinfo_flow_Ai_1.16 routing_flow_Ai_1.16 fcd_flow_Ai_1.16" vType="type1" speedFactor="1.02" vaporized=""/>
    <tripinfo id="flow_Ci_1.19" depart="148.00" departLane="Ci_0" departPos="5.10" departSpeed="0.00" departDelay="0.90" arrival="177.00" arrivalLane="Ao_0" arrivalPos="139.22" arrivalSpeed="13.36" duration="29.00" routeLength="324.61" waitingTime="0.00" waitingCount="0" stopTime="0.00" timeLoss="4.07" rerouteNo="0" devices="tripinfo_flow_Ci_1.19 routing_flow_Ci_1.19 fcd_flow_Ci_1.19" vType="type1" speedFactor="0.97" vaporized=""/>
    <tripinfo id="flow_Ai_1.17" depart="152.00" departLane="Ai_0" departPos="5.10" departSpeed="0.00" departDelay="0.51" arrival="179.00" arrivalLane="Co_0" arrivalPos="172.93" arrivalSpeed="13.97" duration="27.00" routeLength="326.33" waitingTime="0.00" waitingCount="0" stopTime="0.00" timeLoss="4.54" rerouteNo="0" devices="tripinfo_flow_Ai_1.17 routing_flow_Ai_1.17 fcd_flow_Ai_1.17" vType="type1" speedFactor="1.06" vaporized=""/>
    <tripinfo id="flow_Bi_0.7" depart="130.00" departLane="Bi_0" departPos="5.10" departSpeed="0.00" departDelay="0.10" arrival="182.00" arrivalLane="Ao_0" arrivalPos="139.22" arrivalSpeed="11.77" duration="52.00" routeLength="192.83" waitingTime="29.00" waitingCount="1" stopTime="0.00" timeLoss="36.71" rerouteNo="0" devices="tripinfo_flow_Bi_0.7 routing_flow_Bi_0.7 fcd_flow_Bi_0.7" vType="type1" speedFactor="0.94" vaporized=""/>